
     Program PWSCF v.6.1 (svn rev. 13369) starts on 31Dec2017 at  0:13: 6 

     This program is part of the open-source Quantum ESPRESSO suite
     for quantum simulation of materials; please cite
         "P. Giannozzi et al., J. Phys.:Condens. Matter 21 395502 (2009);
          URL http://www.quantum-espresso.org", 
     in publications or presentations arising from this work. More details at
     http://www.quantum-espresso.org/quote

     Parallel version (MPI), running on    28 processors
     R & G space division:  proc/nbgrp/npool/nimage =      28
     Waiting for input...
     Reading input from standard input

     Current dimensions of program PWSCF are:
     Max number of different atomic species (ntypx) = 10
     Max number of k-points (npk) =  40000
     Max angular momentum in pseudopotentials (lmaxx) =  3

     Subspace diagonalization in iterative solution of the eigenvalue problem:
     a serial algorithm will be used

 
     Parallelization info
     --------------------
     sticks:   dense  smooth     PW     G-vecs:    dense   smooth      PW
     Min          62      31      9                 1956      691     107
     Max          63      32     10                 1961      694     111
     Sum        1749     877    253                54795    19381    3071
 

     Title: 
     cubic BaTiO3 at 7.40 lattice parameter. xc=PZ                              


     bravais-lattice index     =            1
     lattice parameter (alat)  =       7.4000  a.u.
     unit-cell volume          =     405.2240 (a.u.)^3
     number of atoms/cell      =            5
     number of atomic types    =            3
     number of electrons       =        40.00
     number of Kohn-Sham states=           24
     kinetic-energy cutoff     =      50.0000  Ry
     charge density cutoff     =     400.0000  Ry
     convergence threshold     =      1.0E-12
     mixing beta               =       0.6000
     number of iterations used =            8  plain     mixing
     Exchange-correlation      = SLA-PZ-NOGX-NOGC ( 1  1  0  0 0 0)

     celldm(1)=   7.400000  celldm(2)=   0.000000  celldm(3)=   0.000000
     celldm(4)=   0.000000  celldm(5)=   0.000000  celldm(6)=   0.000000

     crystal axes: (cart. coord. in units of alat)
               a(1) = (   1.000000   0.000000   0.000000 )  
               a(2) = (   0.000000   1.000000   0.000000 )  
               a(3) = (   0.000000   0.000000   1.000000 )  

     reciprocal axes: (cart. coord. in units 2 pi/alat)
               b(1) = (  1.000000  0.000000  0.000000 )  
               b(2) = (  0.000000  1.000000  0.000000 )  
               b(3) = (  0.000000  0.000000  1.000000 )  


     PseudoPot. # 1 for O  read from file:
     ../../PSP_DIR/O.pz-van_ak.UPF
     MD5 check sum: d814fcb982dd9af4fc6452aae6bb9318
     Pseudo is Ultrasoft, Zval =  6.0
     Generated by new atomic code, or converted to UPF format
     Using radial grid of  737 points,  4 beta functions with: 
                l(1) =   0
                l(2) =   0
                l(3) =   1
                l(4) =   1
     Q(r) pseudized with  8 coefficients,  rinner =    0.800   0.800   0.800


     PseudoPot. # 2 for Ti read from file:
     ../../PSP_DIR/Ti.pz-sp-van_ak.UPF
     MD5 check sum: 545d0e6e05332b8871a8093f427cb0ca
     Pseudo is Ultrasoft, Zval = 12.0
     Generated by new atomic code, or converted to UPF format
     Using radial grid of  851 points,  6 beta functions with: 
                l(1) =   0
                l(2) =   0
                l(3) =   1
                l(4) =   1
                l(5) =   2
                l(6) =   2
     Q(r) pseudized with  8 coefficients,  rinner =    1.000   1.000   1.000
                                                       1.000   1.000

     PseudoPot. # 3 for Ba read from file:
     ../../PSP_DIR/Ba.pz-sp-hgh.UPF
     MD5 check sum: 155c4e4bbe33bd45901c985a874b3acf
     Pseudo is Norm-conserving, Zval = 10.0
     Generated in analytical, separable form
     Using radial grid of 1251 points,  6 beta functions with: 
                l(1) =   0
                l(2) =   0
                l(3) =   1
                l(4) =   1
                l(5) =   2
                l(6) =   3

     atomic species   valence    mass     pseudopotential
        O              6.00    15.99000     O ( 1.00)
        Ti            12.00    47.88000     Ti( 1.00)
        Ba            10.00   137.33000     Ba( 1.00)

     48 Sym. Ops., with inversion, found



   Cartesian axes

     site n.     atom                  positions (alat units)
         1           Ba  tau(   1) = (   0.0000000   0.0000000   0.0000000  )
         2           Ti  tau(   2) = (   0.5000000   0.5000000   0.5000000  )
         3           O   tau(   3) = (   0.0000000   0.5000000   0.5000000  )
         4           O   tau(   4) = (   0.5000000   0.0000000   0.5000000  )
         5           O   tau(   5) = (   0.5000000   0.5000000   0.0000000  )

     number of k points=    10
                       cart. coord. in units 2pi/alat
        k(    1) = (   0.0833333   0.0833333   0.0833333), wk =   0.0740741
        k(    2) = (   0.0833333   0.0833333   0.2500000), wk =   0.2222222
        k(    3) = (   0.0833333   0.0833333   0.4166667), wk =   0.2222222
        k(    4) = (   0.0833333   0.2500000   0.2500000), wk =   0.2222222
        k(    5) = (   0.0833333   0.2500000   0.4166667), wk =   0.4444444
        k(    6) = (   0.0833333   0.4166667   0.4166667), wk =   0.2222222
        k(    7) = (   0.2500000   0.2500000   0.2500000), wk =   0.0740741
        k(    8) = (   0.2500000   0.2500000   0.4166667), wk =   0.2222222
        k(    9) = (   0.2500000   0.4166667   0.4166667), wk =   0.2222222
        k(   10) = (   0.4166667   0.4166667   0.4166667), wk =   0.0740741

     Dense  grid:    54795 G-vectors     FFT dimensions: (  48,  48,  48)

     Smooth grid:    19381 G-vectors     FFT dimensions: (  36,  36,  36)

     Estimated max dynamical RAM per process >       2.14MB

     Estimated total allocated dynamical RAM >      59.80MB

     Initial potential from superposition of free atoms

     starting charge   28.99996, renormalised to   40.00000
     Starting wfc are   22 randomized atomic wfcs +    2 random wfc

     total cpu time spent up to now is        0.3 secs

     per-process dynamical memory:    31.8 Mb

     Self-consistent Calculation

     iteration #  1     ecut=    50.00 Ry     beta=0.60
     Davidson diagonalization with overlap
     ethr =  1.00E-02,  avg # of iterations = 11.7

     total cpu time spent up to now is        0.8 secs

     total energy              =      25.79210719 Ry
     Harris-Foulkes estimate   =    -365.19832187 Ry
     estimated scf accuracy    <     517.72948554 Ry

     iteration #  2     ecut=    50.00 Ry     beta=0.60
     Davidson diagonalization with overlap
     ethr =  1.00E-02,  avg # of iterations =  7.8

     total cpu time spent up to now is        1.1 secs

     total energy              =    -277.12679969 Ry
     Harris-Foulkes estimate   =    -432.26313348 Ry
     estimated scf accuracy    <     289.86569597 Ry

     iteration #  3     ecut=    50.00 Ry     beta=0.60
     Davidson diagonalization with overlap
     ethr =  1.00E-02,  avg # of iterations =  3.6

     total cpu time spent up to now is        1.4 secs

     total energy              =    -271.23343546 Ry
     Harris-Foulkes estimate   =    -293.29298415 Ry
     estimated scf accuracy    <      74.76532492 Ry

     iteration #  4     ecut=    50.00 Ry     beta=0.60
     Davidson diagonalization with overlap
     ethr =  1.00E-02,  avg # of iterations =  4.1

     negative rho (up, down):  1.865E-07 0.000E+00

     total cpu time spent up to now is        1.5 secs

     total energy              =    -268.44587996 Ry
     Harris-Foulkes estimate   =    -273.47680524 Ry
     estimated scf accuracy    <      29.73977232 Ry

     iteration #  5     ecut=    50.00 Ry     beta=0.60
     Davidson diagonalization with overlap
     ethr =  1.00E-02,  avg # of iterations =  2.4

     negative rho (up, down):  1.266E-07 0.000E+00

     total cpu time spent up to now is        1.7 secs

     total energy              =    -269.03427939 Ry
     Harris-Foulkes estimate   =    -269.03046620 Ry
     estimated scf accuracy    <      12.67662456 Ry

     iteration #  6     ecut=    50.00 Ry     beta=0.60
     Davidson diagonalization with overlap
     ethr =  1.00E-02,  avg # of iterations =  1.3

     total cpu time spent up to now is        1.8 secs

     total energy              =    -268.41555594 Ry
     Harris-Foulkes estimate   =    -269.06000274 Ry
     estimated scf accuracy    <      12.42804431 Ry

     iteration #  7     ecut=    50.00 Ry     beta=0.60
     Davidson diagonalization with overlap
     ethr =  1.00E-02,  avg # of iterations =  2.4

     total cpu time spent up to now is        1.9 secs

     total energy              =    -268.30817981 Ry
     Harris-Foulkes estimate   =    -268.68207330 Ry
     estimated scf accuracy    <       9.42056722 Ry

     iteration #  8     ecut=    50.00 Ry     beta=0.60
     Davidson diagonalization with overlap
     ethr =  1.00E-02,  avg # of iterations =  1.0

     negative rho (up, down):  2.349E-05 0.000E+00

     total cpu time spent up to now is        2.0 secs

     total energy              =    -267.60824117 Ry
     Harris-Foulkes estimate   =    -268.32096452 Ry
     estimated scf accuracy    <       8.69732863 Ry

     iteration #  9     ecut=    50.00 Ry     beta=0.60
     Davidson diagonalization with overlap
     ethr =  1.00E-02,  avg # of iterations =  2.0

     negative rho (up, down):  7.041E-07 0.000E+00

     total cpu time spent up to now is        2.1 secs

     total energy              =    -267.19970123 Ry
     Harris-Foulkes estimate   =    -267.90585623 Ry
     estimated scf accuracy    <      13.19182854 Ry

     iteration # 10     ecut=    50.00 Ry     beta=0.60
     Davidson diagonalization with overlap
     ethr =  1.00E-02,  avg # of iterations =  1.0

     negative rho (up, down):  1.792E-06 0.000E+00

     total cpu time spent up to now is        2.2 secs

          k = 0.0833 0.0833 0.0833     band energies (ev):

   -44.2783 -21.3850 -21.3845 -21.3844 -10.9791 -10.0237 -10.0228  -1.5916
     3.2766   3.2772   3.3700   5.0251   5.0255   5.2924   5.2964   5.3144
     5.3156  11.5066  11.9323  11.9358  12.1762  12.1769  12.2360  14.8452

          k = 0.0833 0.0833 0.2500     band energies (ev):

   -44.2768 -21.4585 -21.3827 -21.3822 -10.7758 -10.0138  -9.8521  -1.8179
     3.0939   3.4039   3.4743   4.5434   4.6441   5.0297   5.2800   5.2871
     5.3553  10.6314  11.5643  11.7085  12.1514  12.8558  12.8693  14.8506

          k = 0.0833 0.0833 0.4167     band energies (ev):

   -44.2755 -21.5305 -21.3806 -21.3801 -10.6071 -10.0038  -9.6282  -2.0173
     2.4774   3.6376   3.7314   4.0715   4.2816   5.0933   5.1775   5.3469
     5.4007   9.8092  11.2332  11.4918  12.1707  13.5419  13.5535  14.8486

          k = 0.0833 0.2500 0.2500     band energies (ev):

   -44.2757 -21.4569 -21.4551 -21.3804 -10.5650  -9.8959  -9.7925  -1.9544
     3.1146   3.1250   3.4739   4.0927   4.2465   4.9715   4.9896   5.2735
     5.5715  10.2973  11.4452  11.4585  12.7845  12.8381  13.2833  15.2646

          k = 0.0833 0.2500 0.4167     band energies (ev):

   -44.2744 -21.5276 -21.4536 -21.3783 -10.4083  -9.8408  -9.5948  -2.0927
     2.4722   3.1981   3.4309   3.9038   4.2241   4.5807   4.9791   5.1712
     5.7091  10.2458  10.9415  11.3681  12.8014  13.4706  13.8635  15.3552

          k = 0.0833 0.4167 0.4167     band energies (ev):

   -44.2732 -21.5250 -21.5246 -21.3762 -10.2901  -9.5843  -9.5512  -2.1828
     2.3007   2.7032   3.4490   3.6632   4.0482   4.3784   4.7770   4.8581
     6.0613  10.6114  10.9638  11.0402  13.4161  13.4237  14.2631  15.5495

          k = 0.2500 0.2500 0.2500     band energies (ev):

   -44.2744 -21.4553 -21.4527 -21.4524 -10.3051  -9.7791  -9.7786  -1.9828
     3.0056   3.0080   3.0948   3.6522   3.6568   4.5459   5.4126   5.4131
     5.6846   9.9594  11.5601  11.5631  13.2626  13.2658  13.3580  16.2923

          k = 0.2500 0.2500 0.4167     band energies (ev):

   -44.2731 -21.5248 -21.4519 -21.4503 -10.1167  -9.7651  -9.5687  -2.0189
     2.4622   2.7883   2.9577   3.4563   3.5484   4.0365   5.4773   5.5268
     5.8073  10.3186  11.0496  11.6828  13.2904  13.8212  13.8561  16.2771

          k = 0.2500 0.4167 0.4167     band energies (ev):

   -44.2719 -21.5223 -21.5219 -21.4487  -9.9392  -9.5612  -9.5329  -1.9541
     2.2748   2.6123   2.6302   2.8268   3.3063   3.4640   5.6444   5.6470
     6.0731  10.7881  11.3217  11.5283  13.8166  13.8282  14.2678  16.6686

          k = 0.4167 0.4167 0.4167     band energies (ev):

   -44.2706 -21.5196 -21.5189 -21.5188  -9.5870  -9.5144  -9.5143  -1.6836
     2.1158   2.1950   2.1950   2.5211   2.7322   2.7472   6.0533   6.0533
     6.1042  11.3457  11.7337  11.7343  14.2679  14.2701  14.2718  17.7435

     highest occupied, lowest unoccupied level (ev):    11.9358   12.1514

!    total energy              =    -264.05235429 Ry
     Harris-Foulkes estimate   =    -267.54021498 Ry
     estimated scf accuracy    <       6.79454309 Ry

     The total energy is the sum of the following terms:

     one-electron contribution =     -70.82147976 Ry
     hartree contribution      =      59.58744110 Ry
     xc contribution           =     -43.42855190 Ry
     ewald contribution        =    -211.91466263 Ry
     scf correction            =       2.52489890 Ry

     iteration # 11     ecut=    50.00 Ry     beta=0.60
     Davidson diagonalization with overlap
     ethr =  1.00E-02,  avg # of iterations =  2.6

     negative rho (up, down):  6.016E-05 0.000E+00

     total cpu time spent up to now is        2.4 secs

     total energy              =    -264.71597801 Ry
     Harris-Foulkes estimate   =    -264.92952165 Ry
     estimated scf accuracy    <       0.51153238 Ry

     iteration # 12     ecut=    50.00 Ry     beta=0.60
     Davidson diagonalization with overlap
     ethr =  1.28E-03,  avg # of iterations =  3.1

     negative rho (up, down):  7.109E-04 0.000E+00

     total cpu time spent up to now is        2.5 secs

     total energy              =    -265.10031044 Ry
     Harris-Foulkes estimate   =    -264.86912417 Ry
     estimated scf accuracy    <       0.37499903 Ry

     iteration # 13     ecut=    50.00 Ry     beta=0.60
     Davidson diagonalization with overlap
     ethr =  9.37E-04,  avg # of iterations =  3.0

     negative rho (up, down):  1.270E-06 0.000E+00

     total cpu time spent up to now is        2.7 secs

     total energy              =    -264.01017145 Ry
     Harris-Foulkes estimate   =    -265.34648656 Ry
     estimated scf accuracy    <       6.08303290 Ry

     iteration # 14     ecut=    50.00 Ry     beta=0.60
     Davidson diagonalization with overlap
     ethr =  9.37E-04,  avg # of iterations =  4.0

     negative rho (up, down):  8.609E-07 0.000E+00

     total cpu time spent up to now is        2.9 secs

     total energy              =    -264.80253964 Ry
     Harris-Foulkes estimate   =    -264.80481926 Ry
     estimated scf accuracy    <       0.07344898 Ry

     iteration # 15     ecut=    50.00 Ry     beta=0.60
     Davidson diagonalization with overlap
     ethr =  1.84E-04,  avg # of iterations =  1.4

     negative rho (up, down):  3.526E-07 0.000E+00

     total cpu time spent up to now is        3.0 secs

     total energy              =    -264.79704426 Ry
     Harris-Foulkes estimate   =    -264.80642342 Ry
     estimated scf accuracy    <       0.05708777 Ry

     iteration # 16     ecut=    50.00 Ry     beta=0.60
     Davidson diagonalization with overlap
     ethr =  1.43E-04,  avg # of iterations =  1.6

     negative rho (up, down):  4.888E-07 0.000E+00

     total cpu time spent up to now is        3.1 secs

     total energy              =    -264.79932292 Ry
     Harris-Foulkes estimate   =    -264.79840802 Ry
     estimated scf accuracy    <       0.04200243 Ry

     iteration # 17     ecut=    50.00 Ry     beta=0.60
     Davidson diagonalization with overlap
     ethr =  1.05E-04,  avg # of iterations =  1.0

     negative rho (up, down):  4.717E-07 0.000E+00

     total cpu time spent up to now is        3.2 secs

     total energy              =    -264.79774027 Ry
     Harris-Foulkes estimate   =    -264.79971069 Ry
     estimated scf accuracy    <       0.04280808 Ry

     iteration # 18     ecut=    50.00 Ry     beta=0.60
     Davidson diagonalization with overlap
     ethr =  1.05E-04,  avg # of iterations =  1.0

     negative rho (up, down):  6.626E-07 0.000E+00

     total cpu time spent up to now is        3.5 secs

     total energy              =    -264.77384786 Ry
     Harris-Foulkes estimate   =    -264.79782393 Ry
     estimated scf accuracy    <       0.03959035 Ry

     iteration # 19     ecut=    50.00 Ry     beta=0.60
     Davidson diagonalization with overlap
     ethr =  9.90E-05,  avg # of iterations =  2.9

     negative rho (up, down):  6.012E-07 0.000E+00

     total cpu time spent up to now is        3.6 secs

     total energy              =    -264.78046861 Ry
     Harris-Foulkes estimate   =    -264.78467994 Ry
     estimated scf accuracy    <       0.02212157 Ry

     iteration # 20     ecut=    50.00 Ry     beta=0.60
     Davidson diagonalization with overlap
     ethr =  5.53E-05,  avg # of iterations =  1.0

     negative rho (up, down):  5.802E-07 0.000E+00

     total cpu time spent up to now is        3.7 secs

          k = 0.0833 0.0833 0.0833     band energies (ev):

   -44.2690 -20.8952 -20.8945 -20.8945 -13.8909  -5.6880  -4.9684  -4.9684
     1.1038   1.1038   1.2597   8.4638   8.6990   8.6990   9.4216   9.4216
     9.8669  10.4762  10.7963  10.7964  13.3497  13.4053  13.4053  16.1005

          k = 0.0833 0.0833 0.2500     band energies (ev):

   -44.2683 -20.9293 -20.8934 -20.8931 -13.8240  -5.7784  -4.9427  -4.8549
     1.1559   1.1789   1.4888   7.7408   8.3969   8.4718   8.9450   8.9735
     9.7273   9.7806  10.4900  10.4928  13.4603  14.1994  14.2170  16.1078

          k = 0.0833 0.0833 0.4167     band energies (ev):

   -44.2676 -20.9634 -20.8918 -20.8916 -13.7557  -5.9584  -4.9167  -4.6203
     1.2086   1.3485   1.6119   7.0025   8.1142   8.1891   8.3884   8.7112
     9.5016   9.6644  10.1298  10.2379  13.5393  14.9742  14.9864  16.1074

          k = 0.0833 0.2500 0.2500     band energies (ev):

   -44.2676 -20.9281 -20.9263 -20.8918 -13.7688  -5.6770  -4.9232  -4.8502
     1.0830   1.1772   1.6022   7.3758   7.9900   8.1134   8.5207   8.7118
     9.3255  10.0194  10.1144  10.5578  14.1991  14.3343  14.5591  16.6211

          k = 0.0833 0.2500 0.4167     band energies (ev):

   -44.2669 -20.9607 -20.9251 -20.8903 -13.7123  -5.6954  -4.8711  -4.7362
     1.0807   1.2805   1.5249   6.9036   7.4559   7.8068   8.1995   8.5654
     9.4501   9.7870   9.9780  10.5279  14.3216  15.0126  15.1258  16.7197

          k = 0.0833 0.4167 0.4167     band energies (ev):

   -44.2663 -20.9583 -20.9578 -20.8890 -13.6684  -5.4106  -4.8736  -4.8138
     1.0596   1.1061   1.4814   6.7238   6.9573   7.1754   8.2027   8.2201
     9.2657  10.0232  10.1983  10.8814  15.0270  15.0601  15.4484  16.9083

          k = 0.2500 0.2500 0.2500     band energies (ev):

   -44.2669 -20.9267 -20.9246 -20.9246 -13.7208  -5.4983  -4.8609  -4.8609
     0.9043   0.9043   1.6721   7.1267   7.9310   7.9316   8.4342   8.5632
     8.5632  10.3138  10.3139  10.3749  14.6853  14.6853  14.7120  17.8727

          k = 0.2500 0.2500 0.4167     band energies (ev):

   -44.2663 -20.9585 -20.9239 -20.9230 -13.6715  -5.4217  -4.7956  -4.7566
     0.7241   0.9403   1.4050   6.8756   7.4845   7.8973   7.9277   8.5495
     8.7530  10.0857  10.4179  10.4752  14.8164  15.2135  15.2657  17.8332

          k = 0.2500 0.4167 0.4167     band energies (ev):

   -44.2656 -20.9564 -20.9560 -20.9218 -13.6294  -5.1215  -4.7741  -4.7370
     0.6118   0.6712   1.0189   6.7413   7.1779   7.6724   7.9959   8.4940
     8.5967  10.3503  10.4741  10.8842  15.3466  15.3582  15.5840  18.1149

          k = 0.4167 0.4167 0.4167     band energies (ev):

   -44.2649 -20.9545 -20.9542 -20.9542 -13.5898  -4.8024  -4.6658  -4.6658
     0.3054   0.3054   0.4982   6.6084   7.1841   7.1841   8.3676   8.6503
     8.6503  10.8259  10.8259  10.9408  15.7212  15.7224  15.7248  18.3542

     highest occupied, lowest unoccupied level (ev):    10.9408   13.3497

!    total energy              =    -264.78017052 Ry
     Harris-Foulkes estimate   =    -264.78143493 Ry
     estimated scf accuracy    <       0.00731386 Ry

     The total energy is the sum of the following terms:

     one-electron contribution =     -67.78698951 Ry
     hartree contribution      =      58.27522221 Ry
     xc contribution           =     -42.82061754 Ry
     ewald contribution        =    -211.91466263 Ry
     scf correction            =      -0.53312306 Ry

     iteration # 21     ecut=    50.00 Ry     beta=0.60
     Davidson diagonalization with overlap
     ethr =  1.83E-05,  avg # of iterations =  2.8

     negative rho (up, down):  6.274E-07 0.000E+00

     total cpu time spent up to now is        3.9 secs

     total energy              =    -264.78024568 Ry
     Harris-Foulkes estimate   =    -264.78055531 Ry
     estimated scf accuracy    <       0.00267071 Ry

     iteration # 22     ecut=    50.00 Ry     beta=0.60
     Davidson diagonalization with overlap
     ethr =  6.68E-06,  avg # of iterations =  1.4

     negative rho (up, down):  6.723E-07 0.000E+00

     total cpu time spent up to now is        4.0 secs

     total energy              =    -264.77980388 Ry
     Harris-Foulkes estimate   =    -264.78034310 Ry
     estimated scf accuracy    <       0.00142270 Ry

     iteration # 23     ecut=    50.00 Ry     beta=0.60
     Davidson diagonalization with overlap
     ethr =  3.56E-06,  avg # of iterations =  3.6

     negative rho (up, down):  6.522E-07 0.000E+00

     total cpu time spent up to now is        4.1 secs

     total energy              =    -264.78006412 Ry
     Harris-Foulkes estimate   =    -264.78012519 Ry
     estimated scf accuracy    <       0.00009535 Ry

     iteration # 24     ecut=    50.00 Ry     beta=0.60
     Davidson diagonalization with overlap
     ethr =  2.38E-07,  avg # of iterations =  3.9

     negative rho (up, down):  6.359E-07 0.000E+00

     total cpu time spent up to now is        4.3 secs

     total energy              =    -264.78010167 Ry
     Harris-Foulkes estimate   =    -264.78010554 Ry
     estimated scf accuracy    <       0.00001089 Ry

     iteration # 25     ecut=    50.00 Ry     beta=0.60
     Davidson diagonalization with overlap
     ethr =  2.72E-08,  avg # of iterations =  2.1

     negative rho (up, down):  6.349E-07 0.000E+00

     total cpu time spent up to now is        4.4 secs

     total energy              =    -264.78010232 Ry
     Harris-Foulkes estimate   =    -264.78010339 Ry
     estimated scf accuracy    <       0.00000307 Ry

     iteration # 26     ecut=    50.00 Ry     beta=0.60
     Davidson diagonalization with overlap
     ethr =  7.68E-09,  avg # of iterations =  2.1

     negative rho (up, down):  6.337E-07 0.000E+00

     total cpu time spent up to now is        4.6 secs

     total energy              =    -264.78010255 Ry
     Harris-Foulkes estimate   =    -264.78010269 Ry
     estimated scf accuracy    <       0.00000034 Ry

     iteration # 27     ecut=    50.00 Ry     beta=0.60
     Davidson diagonalization with overlap
     ethr =  8.62E-10,  avg # of iterations =  3.0

     negative rho (up, down):  6.329E-07 0.000E+00

     total cpu time spent up to now is        4.7 secs

     total energy              =    -264.78010263 Ry
     Harris-Foulkes estimate   =    -264.78010263 Ry
     estimated scf accuracy    <       0.00000001 Ry

     iteration # 28     ecut=    50.00 Ry     beta=0.60
     Davidson diagonalization with overlap
     ethr =  2.71E-11,  avg # of iterations =  3.7

     negative rho (up, down):  6.328E-07 0.000E+00

     total cpu time spent up to now is        4.9 secs

     total energy              =    -264.78010263 Ry
     Harris-Foulkes estimate   =    -264.78010263 Ry
     estimated scf accuracy    <          9.9E-10 Ry

     iteration # 29     ecut=    50.00 Ry     beta=0.60
     Davidson diagonalization with overlap
     ethr =  2.48E-12,  avg # of iterations =  3.3

     negative rho (up, down):  6.327E-07 0.000E+00

     total cpu time spent up to now is        5.1 secs

     total energy              =    -264.78010263 Ry
     Harris-Foulkes estimate   =    -264.78010263 Ry
     estimated scf accuracy    <          4.6E-11 Ry

     iteration # 30     ecut=    50.00 Ry     beta=0.60
     Davidson diagonalization with overlap
     ethr =  1.15E-13,  avg # of iterations =  3.8

     negative rho (up, down):  6.327E-07 0.000E+00

     total cpu time spent up to now is        5.2 secs

          k = 0.0833 0.0833 0.0833     band energies (ev):

   -44.6640 -21.2638 -21.2632 -21.2632 -13.7488  -5.7366  -5.0284  -5.0284
     1.2167   1.2167   1.3738   8.4089   8.6331   8.6331   9.3785   9.3785
     9.8289  10.4143  10.7428  10.7428  13.0960  13.1545  13.1545  15.7796

          k = 0.0833 0.0833 0.2500     band energies (ev):

   -44.6633 -21.2960 -21.2621 -21.2618 -13.6803  -5.8264  -5.0033  -4.9144
     1.2708   1.2915   1.6028   7.6561   8.3278   8.4098   8.9013   8.9191
     9.6876   9.7277  10.4307  10.4329  13.1993  13.9510  13.9623  15.7909

          k = 0.0833 0.0833 0.4167     band energies (ev):

   -44.6626 -21.3283 -21.2606 -21.2604 -13.6102  -6.0052  -4.9778  -4.6806
     1.3256   1.4664   1.7217   6.8875   8.0556   8.1296   8.3350   8.6739
     9.4555   9.6201  10.0638  10.1723  13.2705  14.7125  14.7201  15.7896

          k = 0.0833 0.2500 0.2500     band energies (ev):

   -44.6626 -21.2949 -21.2933 -21.2606 -13.6236  -5.7265  -4.9811  -4.9112
     1.1912   1.2916   1.7197   7.3054   7.8748   8.0486   8.4659   8.6570
     9.2707   9.9844  10.0440  10.5192  13.9407  14.0776  14.3077  16.3149

          k = 0.0833 0.2500 0.4167     band energies (ev):

   -44.6619 -21.3259 -21.2921 -21.2592 -13.5655  -5.7455  -4.9315  -4.7947
     1.1911   1.3897   1.6437   6.7967   7.3971   7.7045   8.1405   8.5121
     9.3896   9.7346   9.9368  10.4894  14.0581  14.7464  14.8606  16.4154

          k = 0.0833 0.4167 0.4167     band energies (ev):

   -44.6613 -21.3236 -21.3232 -21.2579 -13.5201  -5.4663  -4.9292  -4.8720
     1.1631   1.2115   1.6052   6.6255   6.9064   7.0377   8.1446   8.1615
     9.1769   9.9950  10.1713  10.8428  14.7573  14.7906  15.1763  16.6116

          k = 0.2500 0.2500 0.2500     band energies (ev):

   -44.6619 -21.2935 -21.2917 -21.2917 -13.5743  -5.5495  -4.9208  -4.9208
     1.0115   1.0115   1.7909   7.0639   7.8166   7.8166   8.3587   8.5174
     8.5174  10.2714  10.2714  10.3356  14.4342  14.4342  14.4422  17.5835

          k = 0.2500 0.2500 0.4167     band energies (ev):

   -44.6613 -21.3238 -21.2910 -21.2902 -13.5236  -5.4745  -4.8578  -4.8153
     0.8307   1.0432   1.5194   6.7730   7.4128   7.7820   7.8418   8.5093
     8.6963  10.0426  10.3829  10.4344  14.5533  14.9508  14.9930  17.5474

          k = 0.2500 0.4167 0.4167     band energies (ev):

   -44.6606 -21.3218 -21.3215 -21.2890 -13.4804  -5.1792  -4.8330  -4.7981
     0.7146   0.7714   1.1266   6.6450   7.0397   7.6204   7.8909   8.4458
     8.5482  10.3143  10.4392  10.8440  15.0775  15.0896  15.3092  17.8871

          k = 0.4167 0.4167 0.4167     band energies (ev):

   -44.6600 -21.3201 -21.3198 -21.3198 -13.4401  -4.8631  -4.7289  -4.7289
     0.4047   0.4047   0.5981   6.5230   7.0456   7.0456   8.3238   8.6074
     8.6074  10.7862  10.7862  10.8996  15.4467  15.4467  15.4503  18.3790

     highest occupied, lowest unoccupied level (ev):    10.8996   13.0960

!    total energy              =    -264.78010263 Ry
     Harris-Foulkes estimate   =    -264.78010263 Ry
     estimated scf accuracy    <          5.5E-12 Ry

     The total energy is the sum of the following terms:

     one-electron contribution =     -68.19543747 Ry
     hartree contribution      =      58.13350102 Ry
     xc contribution           =     -42.80349224 Ry
     ewald contribution        =    -211.91466263 Ry
     scf correction            =      -0.00001131 Ry

     iteration # 31     ecut=    50.00 Ry     beta=0.60
     Davidson diagonalization with overlap
     ethr =  1.00E-13,  avg # of iterations =  1.0

     negative rho (up, down):  6.327E-07 0.000E+00

     total cpu time spent up to now is        5.4 secs

     End of self-consistent calculation

          k = 0.0833 0.0833 0.0833 (  2436 PWs)   bands (ev):

   -44.6640 -21.2638 -21.2632 -21.2632 -13.7488  -5.7366  -5.0284  -5.0284
     1.2167   1.2167   1.3738   8.4088   8.6331   8.6331   9.3785   9.3785
     9.8289  10.4143  10.7428  10.7428  13.0960  13.1544  13.1544  15.7796

          k = 0.0833 0.0833 0.2500 (  2420 PWs)   bands (ev):

   -44.6633 -21.2960 -21.2621 -21.2618 -13.6803  -5.8264  -5.0033  -4.9144
     1.2708   1.2915   1.6028   7.6561   8.3278   8.4098   8.9013   8.9191
     9.6876   9.7277  10.4307  10.4329  13.1993  13.9510  13.9623  15.7909

          k = 0.0833 0.0833 0.4167 (  2426 PWs)   bands (ev):

   -44.6626 -21.3283 -21.2606 -21.2604 -13.6102  -6.0052  -4.9778  -4.6806
     1.3256   1.4664   1.7217   6.8875   8.0556   8.1296   8.3350   8.6739
     9.4555   9.6201  10.0638  10.1723  13.2705  14.7124  14.7201  15.7896

          k = 0.0833 0.2500 0.2500 (  2417 PWs)   bands (ev):

   -44.6626 -21.2949 -21.2933 -21.2606 -13.6236  -5.7265  -4.9811  -4.9112
     1.1912   1.2916   1.7197   7.3054   7.8748   8.0486   8.4659   8.6570
     9.2707   9.9844  10.0440  10.5192  13.9407  14.0776  14.3077  16.3149

          k = 0.0833 0.2500 0.4167 (  2419 PWs)   bands (ev):

   -44.6619 -21.3259 -21.2921 -21.2592 -13.5655  -5.7455  -4.9315  -4.7947
     1.1911   1.3897   1.6437   6.7967   7.3971   7.7045   8.1405   8.5121
     9.3896   9.7346   9.9368  10.4894  14.0581  14.7464  14.8605  16.4154

          k = 0.0833 0.4167 0.4167 (  2427 PWs)   bands (ev):

   -44.6613 -21.3236 -21.3233 -21.2579 -13.5201  -5.4663  -4.9292  -4.8720
     1.1631   1.2115   1.6052   6.6255   6.9064   7.0377   8.1445   8.1615
     9.1769   9.9950  10.1713  10.8428  14.7573  14.7906  15.1763  16.6116

          k = 0.2500 0.2500 0.2500 (  2425 PWs)   bands (ev):

   -44.6620 -21.2935 -21.2917 -21.2917 -13.5743  -5.5495  -4.9208  -4.9208
     1.0115   1.0115   1.7909   7.0639   7.8166   7.8166   8.3587   8.5174
     8.5174  10.2714  10.2714  10.3356  14.4341  14.4341  14.4422  17.5835

          k = 0.2500 0.2500 0.4167 (  2425 PWs)   bands (ev):

   -44.6613 -21.3238 -21.2910 -21.2902 -13.5236  -5.4745  -4.8578  -4.8153
     0.8307   1.0432   1.5194   6.7730   7.4128   7.7820   7.8418   8.5093
     8.6963  10.0426  10.3829  10.4344  14.5533  14.9508  14.9930  17.5474

          k = 0.2500 0.4167 0.4167 (  2416 PWs)   bands (ev):

   -44.6606 -21.3218 -21.3215 -21.2890 -13.4804  -5.1792  -4.8330  -4.7981
     0.7146   0.7714   1.1266   6.6450   7.0397   7.6204   7.8909   8.4458
     8.5482  10.3143  10.4391  10.8440  15.0775  15.0896  15.3092  17.8871

          k = 0.4167 0.4167 0.4167 (  2410 PWs)   bands (ev):

   -44.6600 -21.3201 -21.3198 -21.3198 -13.4401  -4.8631  -4.7289  -4.7289
     0.4047   0.4047   0.5981   6.5230   7.0455   7.0455   8.3237   8.6074
     8.6074  10.7862  10.7862  10.8996  15.4467  15.4467  15.4503  18.3790

     highest occupied, lowest unoccupied level (ev):    10.8996   13.0960

!    total energy              =    -264.78010263 Ry
     Harris-Foulkes estimate   =    -264.78010263 Ry
     estimated scf accuracy    <          2.2E-13 Ry

     The total energy is the sum of the following terms:

     one-electron contribution =     -68.19544981 Ry
     hartree contribution      =      58.13350179 Ry
     xc contribution           =     -42.80349198 Ry
     ewald contribution        =    -211.91466263 Ry

     convergence has been achieved in  31 iterations

     Forces acting on atoms (cartesian axes, Ry/au):

     atom    1 type  3   force =     0.00000000    0.00000000    0.00000000
     atom    2 type  2   force =     0.00000000    0.00000000    0.00000000
     atom    3 type  1   force =     0.00000000    0.00000000    0.00000000
     atom    4 type  1   force =     0.00000000    0.00000000    0.00000000
     atom    5 type  1   force =     0.00000000   -0.00000000    0.00000000

     Total force =     0.000000     Total SCF correction =     0.000000


     Computing stress (Cartesian axis) and pressure

          total   stress  (Ry/bohr**3)                   (kbar)     P=   17.94
   0.00012192   0.00000000   0.00000000         17.94      0.00      0.00
   0.00000000   0.00012192   0.00000000          0.00     17.94      0.00
   0.00000000   0.00000000   0.00012192          0.00      0.00     17.94


     Writing output data file bto.save
 
     init_run     :      0.10s CPU      0.12s WALL (       1 calls)
     electrons    :      4.90s CPU      5.06s WALL (       1 calls)
     forces       :      0.03s CPU      0.03s WALL (       1 calls)
     stress       :      0.06s CPU      0.06s WALL (       1 calls)

     Called by init_run:
     wfcinit      :      0.03s CPU      0.03s WALL (       1 calls)
     potinit      :      0.01s CPU      0.01s WALL (       1 calls)

     Called by electrons:
     c_bands      :      3.95s CPU      4.06s WALL (      31 calls)
     sum_band     :      0.65s CPU      0.69s WALL (      31 calls)
     v_of_rho     :      0.06s CPU      0.06s WALL (      32 calls)
     newd         :      0.20s CPU      0.20s WALL (      32 calls)
     mix_rho      :      0.03s CPU      0.02s WALL (      31 calls)

     Called by c_bands:
     init_us_2    :      0.02s CPU      0.03s WALL (     650 calls)
     cegterg      :      3.77s CPU      3.88s WALL (     310 calls)

     Called by sum_band:
     sum_band:bec :      0.00s CPU      0.00s WALL (     310 calls)
     addusdens    :      0.23s CPU      0.24s WALL (      31 calls)

     Called by *egterg:
     h_psi        :      2.02s CPU      2.12s WALL (    1216 calls)
     s_psi        :      0.03s CPU      0.04s WALL (    1216 calls)
     g_psi        :      0.00s CPU      0.01s WALL (     896 calls)
     cdiaghg      :      1.27s CPU      1.23s WALL (    1206 calls)

     Called by h_psi:
     h_psi:pot    :      2.02s CPU      2.12s WALL (    1216 calls)
     h_psi:calbec :      0.12s CPU      0.11s WALL (    1216 calls)
     vloc_psi     :      1.84s CPU      1.95s WALL (    1216 calls)
     add_vuspsi   :      0.05s CPU      0.05s WALL (    1216 calls)

     General routines
     calbec       :      0.17s CPU      0.16s WALL (    1576 calls)
     fft          :      0.04s CPU      0.05s WALL (     289 calls)
     ffts         :      0.00s CPU      0.01s WALL (      63 calls)
     fftw         :      2.01s CPU      2.13s WALL (   49096 calls)
     interpolate  :      0.01s CPU      0.01s WALL (      63 calls)
     davcio       :      0.00s CPU      0.00s WALL (      10 calls)
 
     Parallel routines
     fft_scatter  :      1.22s CPU      1.27s WALL (   49448 calls)
 
     PWSCF        :     5.26s CPU         5.53s WALL

 
   This run was terminated on:   0:13:12  31Dec2017            

=------------------------------------------------------------------------------=
   JOB DONE.
=------------------------------------------------------------------------------=
