
     Program PWSCF v.6.1 (svn rev. 13369) starts on 31Dec2017 at  0:13: 1 

     This program is part of the open-source Quantum ESPRESSO suite
     for quantum simulation of materials; please cite
         "P. Giannozzi et al., J. Phys.:Condens. Matter 21 395502 (2009);
          URL http://www.quantum-espresso.org", 
     in publications or presentations arising from this work. More details at
     http://www.quantum-espresso.org/quote

     Parallel version (MPI), running on    28 processors
     R & G space division:  proc/nbgrp/npool/nimage =      28
     Waiting for input...
     Reading input from standard input

     Current dimensions of program PWSCF are:
     Max number of different atomic species (ntypx) = 10
     Max number of k-points (npk) =  40000
     Max angular momentum in pseudopotentials (lmaxx) =  3

     Subspace diagonalization in iterative solution of the eigenvalue problem:
     a serial algorithm will be used

 
     Parallelization info
     --------------------
     sticks:   dense  smooth     PW     G-vecs:    dense   smooth      PW
     Min          62      31      8                 1956      691     104
     Max          63      32     10                 1961      694     107
     Sum        1749     877    249                54795    19381    2969
 

     Title: 
     cubic BaTiO3 at 7.40 lattice parameter. xc=PZ                              


     bravais-lattice index     =            1
     lattice parameter (alat)  =       7.4000  a.u.
     unit-cell volume          =     405.2240 (a.u.)^3
     number of atoms/cell      =            5
     number of atomic types    =            3
     number of electrons       =        40.00
     number of Kohn-Sham states=           24
     kinetic-energy cutoff     =      50.0000  Ry
     charge density cutoff     =     400.0000  Ry
     convergence threshold     =      1.0E-12
     mixing beta               =       0.6000
     number of iterations used =            8  plain     mixing
     Exchange-correlation      = SLA-PZ-NOGX-NOGC ( 1  1  0  0 0 0)

     celldm(1)=   7.400000  celldm(2)=   0.000000  celldm(3)=   0.000000
     celldm(4)=   0.000000  celldm(5)=   0.000000  celldm(6)=   0.000000

     crystal axes: (cart. coord. in units of alat)
               a(1) = (   1.000000   0.000000   0.000000 )  
               a(2) = (   0.000000   1.000000   0.000000 )  
               a(3) = (   0.000000   0.000000   1.000000 )  

     reciprocal axes: (cart. coord. in units 2 pi/alat)
               b(1) = (  1.000000  0.000000  0.000000 )  
               b(2) = (  0.000000  1.000000  0.000000 )  
               b(3) = (  0.000000  0.000000  1.000000 )  


     PseudoPot. # 1 for O  read from file:
     ../../PSP_DIR/O.pz-van_ak.UPF
     MD5 check sum: d814fcb982dd9af4fc6452aae6bb9318
     Pseudo is Ultrasoft, Zval =  6.0
     Generated by new atomic code, or converted to UPF format
     Using radial grid of  737 points,  4 beta functions with: 
                l(1) =   0
                l(2) =   0
                l(3) =   1
                l(4) =   1
     Q(r) pseudized with  8 coefficients,  rinner =    0.800   0.800   0.800


     PseudoPot. # 2 for Ti read from file:
     ../../PSP_DIR/Ti.pz-sp-van_ak.UPF
     MD5 check sum: 545d0e6e05332b8871a8093f427cb0ca
     Pseudo is Ultrasoft, Zval = 12.0
     Generated by new atomic code, or converted to UPF format
     Using radial grid of  851 points,  6 beta functions with: 
                l(1) =   0
                l(2) =   0
                l(3) =   1
                l(4) =   1
                l(5) =   2
                l(6) =   2
     Q(r) pseudized with  8 coefficients,  rinner =    1.000   1.000   1.000
                                                       1.000   1.000

     PseudoPot. # 3 for Ba read from file:
     ../../PSP_DIR/Ba.pz-sp-hgh.UPF
     MD5 check sum: 155c4e4bbe33bd45901c985a874b3acf
     Pseudo is Norm-conserving, Zval = 10.0
     Generated in analytical, separable form
     Using radial grid of 1251 points,  6 beta functions with: 
                l(1) =   0
                l(2) =   0
                l(3) =   1
                l(4) =   1
                l(5) =   2
                l(6) =   3

     atomic species   valence    mass     pseudopotential
        O              6.00    15.99000     O ( 1.00)
        Ti            12.00    47.88000     Ti( 1.00)
        Ba            10.00   137.33000     Ba( 1.00)

     48 Sym. Ops., with inversion, found



   Cartesian axes

     site n.     atom                  positions (alat units)
         1           Ba  tau(   1) = (   0.0000000   0.0000000   0.0000000  )
         2           Ti  tau(   2) = (   0.5000000   0.5000000   0.5000000  )
         3           O   tau(   3) = (   0.0000000   0.5000000   0.5000000  )
         4           O   tau(   4) = (   0.5000000   0.0000000   0.5000000  )
         5           O   tau(   5) = (   0.5000000   0.5000000   0.0000000  )

     number of k points=     4
                       cart. coord. in units 2pi/alat
        k(    1) = (   0.1250000   0.1250000   0.1250000), wk =   0.2500000
        k(    2) = (   0.1250000   0.1250000   0.3750000), wk =   0.7500000
        k(    3) = (   0.1250000   0.3750000   0.3750000), wk =   0.7500000
        k(    4) = (   0.3750000   0.3750000   0.3750000), wk =   0.2500000

     Dense  grid:    54795 G-vectors     FFT dimensions: (  48,  48,  48)

     Smooth grid:    19381 G-vectors     FFT dimensions: (  36,  36,  36)

     Estimated max dynamical RAM per process >       1.95MB

     Estimated total allocated dynamical RAM >      54.51MB

     Initial potential from superposition of free atoms

     starting charge   28.99996, renormalised to   40.00000
     Starting wfc are   22 randomized atomic wfcs +    2 random wfc

     total cpu time spent up to now is        0.3 secs

     per-process dynamical memory:    31.8 Mb

     Self-consistent Calculation

     iteration #  1     ecut=    50.00 Ry     beta=0.60
     Davidson diagonalization with overlap
     ethr =  1.00E-02,  avg # of iterations = 11.8

     total cpu time spent up to now is        0.5 secs

     total energy              =      24.98396655 Ry
     Harris-Foulkes estimate   =    -365.16511970 Ry
     estimated scf accuracy    <     516.64489431 Ry

     iteration #  2     ecut=    50.00 Ry     beta=0.60
     Davidson diagonalization with overlap
     ethr =  1.00E-02,  avg # of iterations =  7.5

     total cpu time spent up to now is        0.6 secs

     total energy              =    -276.99703196 Ry
     Harris-Foulkes estimate   =    -431.82249140 Ry
     estimated scf accuracy    <     289.29881826 Ry

     iteration #  3     ecut=    50.00 Ry     beta=0.60
     Davidson diagonalization with overlap
     ethr =  1.00E-02,  avg # of iterations =  3.8

     total cpu time spent up to now is        0.7 secs

     total energy              =    -271.28345809 Ry
     Harris-Foulkes estimate   =    -293.15281054 Ry
     estimated scf accuracy    <      74.20495371 Ry

     iteration #  4     ecut=    50.00 Ry     beta=0.60
     Davidson diagonalization with overlap
     ethr =  1.00E-02,  avg # of iterations =  4.0

     negative rho (up, down):  2.317E-07 0.000E+00

     total cpu time spent up to now is        0.8 secs

     total energy              =    -268.04759292 Ry
     Harris-Foulkes estimate   =    -273.48120786 Ry
     estimated scf accuracy    <      30.50294607 Ry

     iteration #  5     ecut=    50.00 Ry     beta=0.60
     Davidson diagonalization with overlap
     ethr =  1.00E-02,  avg # of iterations =  3.2

     negative rho (up, down):  1.364E-08 0.000E+00

     total cpu time spent up to now is        0.9 secs

     total energy              =    -268.97946670 Ry
     Harris-Foulkes estimate   =    -268.96657712 Ry
     estimated scf accuracy    <      10.26934657 Ry

     iteration #  6     ecut=    50.00 Ry     beta=0.60
     Davidson diagonalization with overlap
     ethr =  1.00E-02,  avg # of iterations =  1.0

     negative rho (up, down):  5.669E-08 0.000E+00

     total cpu time spent up to now is        0.9 secs

     total energy              =    -268.81554403 Ry
     Harris-Foulkes estimate   =    -268.99149332 Ry
     estimated scf accuracy    <      10.51139857 Ry

     iteration #  7     ecut=    50.00 Ry     beta=0.60
     Davidson diagonalization with overlap
     ethr =  1.00E-02,  avg # of iterations =  1.0

     negative rho (up, down):  5.600E-07 0.000E+00

     total cpu time spent up to now is        1.0 secs

     total energy              =    -266.21618099 Ry
     Harris-Foulkes estimate   =    -268.82238786 Ry
     estimated scf accuracy    <      10.38581049 Ry

     iteration #  8     ecut=    50.00 Ry     beta=0.60
     Davidson diagonalization with overlap
     ethr =  1.00E-02,  avg # of iterations =  2.0

     negative rho (up, down):  5.348E-07 0.000E+00

     total cpu time spent up to now is        1.0 secs

     total energy              =    -266.90015945 Ry
     Harris-Foulkes estimate   =    -266.49727177 Ry
     estimated scf accuracy    <       4.07977873 Ry

     iteration #  9     ecut=    50.00 Ry     beta=0.60
     Davidson diagonalization with overlap
     ethr =  1.00E-02,  avg # of iterations =  1.0

     total cpu time spent up to now is        1.1 secs

     total energy              =    -265.13337088 Ry
     Harris-Foulkes estimate   =    -266.92281090 Ry
     estimated scf accuracy    <       5.11540986 Ry

     iteration # 10     ecut=    50.00 Ry     beta=0.60
     Davidson diagonalization with overlap
     ethr =  1.00E-02,  avg # of iterations =  2.0

     total cpu time spent up to now is        1.2 secs

          k = 0.1250 0.1250 0.1250     band energies (ev):

   -45.6489 -22.4528 -22.4523 -22.4519  -9.0237  -7.1829  -7.1764  -6.0127
     4.3628   4.3677   4.8389   6.9934   7.0203   7.2679   7.5852   7.6012
     7.9758   8.6977   9.8497   9.8545  12.1052  12.1642  12.1655  14.8020

          k = 0.1250 0.1250 0.3750     band energies (ev):

   -45.6475 -22.5134 -22.4499 -22.4497  -8.3381  -7.4144  -7.1549  -6.1325
     4.4221   4.5765   5.1525   5.7814   6.3454   6.6302   7.1232   7.8203
     7.9505   7.9560   9.1806   9.3140  12.2180  13.2457  13.2752  14.7866

          k = 0.1250 0.3750 0.3750     band energies (ev):

   -45.6463 -22.5106 -22.5101 -22.4475  -7.7776  -7.2739  -6.9372  -6.5567
     4.0877   4.1148   4.7875   5.2984   5.3535   6.2600   6.9479   7.0856
     8.2812   8.6158   9.0511   9.7323  13.3018  13.3466  13.8525  15.4801

          k = 0.3750 0.3750 0.3750     band energies (ev):

   -45.6451 -22.5078 -22.5069 -22.5065  -7.3063  -6.8804  -6.8793  -6.7670
     3.0982   3.0987   3.6538   4.7315   5.1164   5.2304   8.5139   8.5147
     8.5645   8.7503   9.4573   9.4577  13.9767  13.9805  13.9963  17.4548

     highest occupied, lowest unoccupied level (ev):     9.8545   12.1052

!    total energy              =    -264.66642742 Ry
     Harris-Foulkes estimate   =    -265.37548984 Ry
     estimated scf accuracy    <       1.46850300 Ry

     The total energy is the sum of the following terms:

     one-electron contribution =     -70.01486713 Ry
     hartree contribution      =      57.47809358 Ry
     xc contribution           =     -43.04090089 Ry
     ewald contribution        =    -211.91466263 Ry
     scf correction            =       2.82590965 Ry

     iteration # 11     ecut=    50.00 Ry     beta=0.60
     Davidson diagonalization with overlap
     ethr =  3.67E-03,  avg # of iterations =  3.0

     total cpu time spent up to now is        1.2 secs

     total energy              =    -264.87635588 Ry
     Harris-Foulkes estimate   =    -264.92111026 Ry
     estimated scf accuracy    <       0.52815028 Ry

     iteration # 12     ecut=    50.00 Ry     beta=0.60
     Davidson diagonalization with overlap
     ethr =  1.32E-03,  avg # of iterations =  1.0

     negative rho (up, down):  1.774E-08 0.000E+00

     total cpu time spent up to now is        1.3 secs

     total energy              =    -264.87428355 Ry
     Harris-Foulkes estimate   =    -264.88559479 Ry
     estimated scf accuracy    <       0.33893348 Ry

     iteration # 13     ecut=    50.00 Ry     beta=0.60
     Davidson diagonalization with overlap
     ethr =  8.47E-04,  avg # of iterations =  1.0

     negative rho (up, down):  3.309E-07 0.000E+00

     total cpu time spent up to now is        1.3 secs

     total energy              =    -265.12348384 Ry
     Harris-Foulkes estimate   =    -264.87769783 Ry
     estimated scf accuracy    <       0.37275189 Ry

     iteration # 14     ecut=    50.00 Ry     beta=0.60
     Davidson diagonalization with overlap
     ethr =  8.47E-04,  avg # of iterations =  3.2

     negative rho (up, down):  5.977E-07 0.000E+00

     total cpu time spent up to now is        1.4 secs

     total energy              =    -265.23490783 Ry
     Harris-Foulkes estimate   =    -265.33501559 Ry
     estimated scf accuracy    <       5.33681785 Ry

     iteration # 15     ecut=    50.00 Ry     beta=0.60
     Davidson diagonalization with overlap
     ethr =  8.47E-04,  avg # of iterations =  1.0

     negative rho (up, down):  5.957E-07 0.000E+00

     total cpu time spent up to now is        1.5 secs

     total energy              =    -265.33604696 Ry
     Harris-Foulkes estimate   =    -265.24054314 Ry
     estimated scf accuracy    <       4.25547527 Ry

     iteration # 16     ecut=    50.00 Ry     beta=0.60
     Davidson diagonalization with overlap
     ethr =  8.47E-04,  avg # of iterations =  1.0

     negative rho (up, down):  9.629E-07 0.000E+00

     total cpu time spent up to now is        1.5 secs

     total energy              =    -264.69671395 Ry
     Harris-Foulkes estimate   =    -265.35272560 Ry
     estimated scf accuracy    <       6.18185832 Ry

     iteration # 17     ecut=    50.00 Ry     beta=0.60
     Davidson diagonalization with overlap
     ethr =  8.47E-04,  avg # of iterations =  3.2

     negative rho (up, down):  8.036E-07 0.000E+00

     total cpu time spent up to now is        1.6 secs

     total energy              =    -264.77135430 Ry
     Harris-Foulkes estimate   =    -264.89114242 Ry
     estimated scf accuracy    <       0.88961961 Ry

     iteration # 18     ecut=    50.00 Ry     beta=0.60
     Davidson diagonalization with overlap
     ethr =  8.47E-04,  avg # of iterations =  1.0

     negative rho (up, down):  7.495E-07 0.000E+00

     total cpu time spent up to now is        1.6 secs

     total energy              =    -264.76770147 Ry
     Harris-Foulkes estimate   =    -264.80379229 Ry
     estimated scf accuracy    <       0.21676318 Ry

     iteration # 19     ecut=    50.00 Ry     beta=0.60
     Davidson diagonalization with overlap
     ethr =  5.42E-04,  avg # of iterations =  2.2

     negative rho (up, down):  6.745E-07 0.000E+00

     total cpu time spent up to now is        1.7 secs

     total energy              =    -264.78352706 Ry
     Harris-Foulkes estimate   =    -264.78478020 Ry
     estimated scf accuracy    <       0.02763737 Ry

     iteration # 20     ecut=    50.00 Ry     beta=0.60
     Davidson diagonalization with overlap
     ethr =  6.91E-05,  avg # of iterations =  3.0

     negative rho (up, down):  6.048E-07 0.000E+00

     total cpu time spent up to now is        1.8 secs

          k = 0.1250 0.1250 0.1250     band energies (ev):

   -45.1980 -21.7506 -21.7496 -21.7496 -13.7134  -5.7257  -5.0033  -5.0033
     1.2185   1.2185   1.5484   8.0264   8.4418   8.4419   9.0752   9.0752
     9.8874   9.9556  10.5710  10.5712  13.0707  13.1541  13.1546  15.7764

          k = 0.1250 0.1250 0.3750     band energies (ev):

   -45.1970 -21.7982 -21.7478 -21.7474 -13.6078  -5.8718  -4.9513  -4.7627
     1.2314   1.4048   1.7196   6.9021   7.8571   8.1234   8.2503   8.6105
     9.4891   9.7716  10.0797  10.1244  13.2333  14.2886  14.2984  15.7696

          k = 0.1250 0.3750 0.3750     band energies (ev):

   -45.1960 -21.7952 -21.7945 -21.7455 -13.5312  -5.4941  -4.9186  -4.8366
     1.1069   1.1367   1.6014   6.7018   7.0720   7.1643   8.2107   8.2696
     8.9833   9.9121  10.2165  10.7833  14.3407  14.4039  14.7054  16.4796

          k = 0.3750 0.3750 0.3750     band energies (ev):

   -45.1950 -21.7926 -21.7920 -21.7920 -13.4638  -5.0339  -4.7668  -4.7668
     0.5455   0.5455   0.9338   6.6785   7.0686   7.0687   8.0145   8.5322
     8.5322  10.6326  10.6326  10.8300  14.9333  14.9353  14.9442  18.4069

     highest occupied, lowest unoccupied level (ev):    10.8300   13.0707

!    total energy              =    -264.78300240 Ry
     Harris-Foulkes estimate   =    -264.78453247 Ry
     estimated scf accuracy    <       0.02127929 Ry

     The total energy is the sum of the following terms:

     one-electron contribution =     -68.89101279 Ry
     hartree contribution      =      57.85316664 Ry
     xc contribution           =     -42.77163368 Ry
     ewald contribution        =    -211.91466263 Ry
     scf correction            =       0.94114006 Ry

     iteration # 21     ecut=    50.00 Ry     beta=0.60
     Davidson diagonalization with overlap
     ethr =  5.32E-05,  avg # of iterations =  1.0

     negative rho (up, down):  6.121E-07 0.000E+00

     total cpu time spent up to now is        1.8 secs

     total energy              =    -264.78024074 Ry
     Harris-Foulkes estimate   =    -264.78337593 Ry
     estimated scf accuracy    <       0.01337062 Ry

     iteration # 22     ecut=    50.00 Ry     beta=0.60
     Davidson diagonalization with overlap
     ethr =  3.34E-05,  avg # of iterations =  2.5

     negative rho (up, down):  6.110E-07 0.000E+00

     total cpu time spent up to now is        1.9 secs

     total energy              =    -264.78125082 Ry
     Harris-Foulkes estimate   =    -264.78138371 Ry
     estimated scf accuracy    <       0.00157639 Ry

     iteration # 23     ecut=    50.00 Ry     beta=0.60
     Davidson diagonalization with overlap
     ethr =  3.94E-06,  avg # of iterations =  5.0

     negative rho (up, down):  6.241E-07 0.000E+00

     total cpu time spent up to now is        1.9 secs

     total energy              =    -264.78118952 Ry
     Harris-Foulkes estimate   =    -264.78132993 Ry
     estimated scf accuracy    <       0.00122486 Ry

     iteration # 24     ecut=    50.00 Ry     beta=0.60
     Davidson diagonalization with overlap
     ethr =  3.06E-06,  avg # of iterations =  2.2

     negative rho (up, down):  6.287E-07 0.000E+00

     total cpu time spent up to now is        2.0 secs

     total energy              =    -264.78094927 Ry
     Harris-Foulkes estimate   =    -264.78122790 Ry
     estimated scf accuracy    <       0.00089991 Ry

     iteration # 25     ecut=    50.00 Ry     beta=0.60
     Davidson diagonalization with overlap
     ethr =  2.25E-06,  avg # of iterations =  3.0

     negative rho (up, down):  6.249E-07 0.000E+00

     total cpu time spent up to now is        2.1 secs

     total energy              =    -264.78104861 Ry
     Harris-Foulkes estimate   =    -264.78105699 Ry
     estimated scf accuracy    <       0.00002879 Ry

     iteration # 26     ecut=    50.00 Ry     beta=0.60
     Davidson diagonalization with overlap
     ethr =  7.20E-08,  avg # of iterations =  4.0

     negative rho (up, down):  6.249E-07 0.000E+00

     total cpu time spent up to now is        2.2 secs

     total energy              =    -264.78107197 Ry
     Harris-Foulkes estimate   =    -264.78107198 Ry
     estimated scf accuracy    <       0.00000202 Ry

     iteration # 27     ecut=    50.00 Ry     beta=0.60
     Davidson diagonalization with overlap
     ethr =  5.05E-09,  avg # of iterations =  2.2

     negative rho (up, down):  6.261E-07 0.000E+00

     total cpu time spent up to now is        2.2 secs

     total energy              =    -264.78107126 Ry
     Harris-Foulkes estimate   =    -264.78107214 Ry
     estimated scf accuracy    <       0.00000243 Ry

     iteration # 28     ecut=    50.00 Ry     beta=0.60
     Davidson diagonalization with overlap
     ethr =  5.05E-09,  avg # of iterations =  2.2

     negative rho (up, down):  6.267E-07 0.000E+00

     total cpu time spent up to now is        2.3 secs

     total energy              =    -264.78107154 Ry
     Harris-Foulkes estimate   =    -264.78107157 Ry
     estimated scf accuracy    <       0.00000008 Ry

     iteration # 29     ecut=    50.00 Ry     beta=0.60
     Davidson diagonalization with overlap
     ethr =  2.03E-10,  avg # of iterations =  4.0

     negative rho (up, down):  6.267E-07 0.000E+00

     total cpu time spent up to now is        2.4 secs

     total energy              =    -264.78107156 Ry
     Harris-Foulkes estimate   =    -264.78107158 Ry
     estimated scf accuracy    <       0.00000005 Ry

     iteration # 30     ecut=    50.00 Ry     beta=0.60
     Davidson diagonalization with overlap
     ethr =  1.22E-10,  avg # of iterations =  2.8

     negative rho (up, down):  6.269E-07 0.000E+00

     total cpu time spent up to now is        2.4 secs

          k = 0.1250 0.1250 0.1250     band energies (ev):

   -44.6477 -21.2548 -21.2537 -21.2537 -13.7141  -5.7373  -5.0163  -5.0163
     1.2132   1.2132   1.5443   8.0454   8.4904   8.4904   9.0675   9.0675
     9.9085   9.9161  10.5687  10.5687  13.3956  13.4679  13.4679  16.1656

          k = 0.1250 0.1250 0.3750     band energies (ev):

   -44.6466 -21.3069 -21.2518 -21.2513 -13.6078  -5.8843  -4.9643  -4.7691
     1.2261   1.3996   1.7157   6.9826   7.8843   8.1537   8.2688   8.6209
     9.5012   9.7482  10.0870  10.1159  13.5614  14.6042  14.6283  16.1641

          k = 0.1250 0.3750 0.3750     band energies (ev):

   -44.6455 -21.3035 -21.3028 -21.2493 -13.5314  -5.5052  -4.9248  -4.8446
     1.0997   1.1304   1.5962   6.7617   7.1849   7.1885   8.2411   8.2896
     9.0313   9.8858  10.1820  10.7461  14.6741  14.7334  15.0581  16.8519

          k = 0.3750 0.3750 0.3750     band energies (ev):

   -44.6444 -21.3007 -21.3000 -21.3000 -13.4640  -5.0403  -4.7733  -4.7733
     0.5378   0.5378   0.9265   6.7225   7.1861   7.1861   8.0428   8.5639
     8.5639  10.5958  10.5958  10.7892  15.2750  15.2750  15.2881  18.6094

     highest occupied, lowest unoccupied level (ev):    10.7892   13.3956

!    total energy              =    -264.78107157 Ry
     Harris-Foulkes estimate   =    -264.78107157 Ry
     estimated scf accuracy    <          2.0E-09 Ry

     The total energy is the sum of the following terms:

     one-electron contribution =     -68.20274868 Ry
     hartree contribution      =      58.14000506 Ry
     xc contribution           =     -42.80388131 Ry
     ewald contribution        =    -211.91466263 Ry
     scf correction            =       0.00021599 Ry

     iteration # 31     ecut=    50.00 Ry     beta=0.60
     Davidson diagonalization with overlap
     ethr =  4.92E-12,  avg # of iterations =  3.0

     negative rho (up, down):  6.269E-07 0.000E+00

     total cpu time spent up to now is        2.5 secs

     total energy              =    -264.78107157 Ry
     Harris-Foulkes estimate   =    -264.78107157 Ry
     estimated scf accuracy    <          6.4E-10 Ry

     iteration # 32     ecut=    50.00 Ry     beta=0.60
     Davidson diagonalization with overlap
     ethr =  1.60E-12,  avg # of iterations =  3.2

     negative rho (up, down):  6.269E-07 0.000E+00

     total cpu time spent up to now is        2.6 secs

     total energy              =    -264.78107157 Ry
     Harris-Foulkes estimate   =    -264.78107157 Ry
     estimated scf accuracy    <          8.2E-12 Ry

     iteration # 33     ecut=    50.00 Ry     beta=0.60
     Davidson diagonalization with overlap
     ethr =  1.00E-13,  avg # of iterations =  2.8

     negative rho (up, down):  6.269E-07 0.000E+00

     total cpu time spent up to now is        2.6 secs

     total energy              =    -264.78107157 Ry
     Harris-Foulkes estimate   =    -264.78107157 Ry
     estimated scf accuracy    <          3.4E-12 Ry

     iteration # 34     ecut=    50.00 Ry     beta=0.60
     Davidson diagonalization with overlap
     ethr =  1.00E-13,  avg # of iterations =  1.2

     negative rho (up, down):  6.269E-07 0.000E+00

     total cpu time spent up to now is        2.7 secs

     End of self-consistent calculation

          k = 0.1250 0.1250 0.1250 (  2424 PWs)   bands (ev):

   -44.6476 -21.2547 -21.2535 -21.2535 -13.7142  -5.7372  -5.0162  -5.0162
     1.2131   1.2131   1.5442   8.0454   8.4905   8.4905   9.0676   9.0676
     9.9086   9.9161  10.5688  10.5688  13.3957  13.4680  13.4680  16.1657

          k = 0.1250 0.1250 0.3750 (  2419 PWs)   bands (ev):

   -44.6464 -21.3067 -21.2516 -21.2512 -13.6079  -5.8842  -4.9642  -4.7691
     1.2260   1.3995   1.7156   6.9826   7.8843   8.1538   8.2688   8.6210
     9.5013   9.7482  10.0871  10.1160  13.5615  14.6043  14.6284  16.1642

          k = 0.1250 0.3750 0.3750 (  2420 PWs)   bands (ev):

   -44.6454 -21.3034 -21.3026 -21.2492 -13.5315  -5.5052  -4.9247  -4.8445
     1.0997   1.1303   1.5961   6.7618   7.1850   7.1886   8.2411   8.2897
     9.0314   9.8859  10.1820  10.7462  14.6742  14.7335  15.0582  16.8520

          k = 0.3750 0.3750 0.3750 (  2398 PWs)   bands (ev):

   -44.6443 -21.3005 -21.2999 -21.2999 -13.4641  -5.0402  -4.7732  -4.7732
     0.5378   0.5378   0.9264   6.7226   7.1862   7.1862   8.0428   8.5640
     8.5640  10.5959  10.5959  10.7893  15.2752  15.2752  15.2882  18.6095

     highest occupied, lowest unoccupied level (ev):    10.7893   13.3957

!    total energy              =    -264.78107157 Ry
     Harris-Foulkes estimate   =    -264.78107157 Ry
     estimated scf accuracy    <          2.3E-13 Ry

     The total energy is the sum of the following terms:

     one-electron contribution =     -68.20248413 Ry
     hartree contribution      =      58.13995016 Ry
     xc contribution           =     -42.80387496 Ry
     ewald contribution        =    -211.91466263 Ry

     convergence has been achieved in  34 iterations

     Forces acting on atoms (cartesian axes, Ry/au):

     atom    1 type  3   force =     0.00000000    0.00000000    0.00000000
     atom    2 type  2   force =     0.00000000    0.00000000    0.00000000
     atom    3 type  1   force =     0.00000000    0.00000000    0.00000000
     atom    4 type  1   force =     0.00000000    0.00000000    0.00000000
     atom    5 type  1   force =     0.00000000    0.00000000    0.00000000

     Total force =     0.000000     Total SCF correction =     0.000000


     Computing stress (Cartesian axis) and pressure

          total   stress  (Ry/bohr**3)                   (kbar)     P=   17.46
   0.00011872   0.00000000   0.00000000         17.46      0.00      0.00
   0.00000000   0.00011872   0.00000000          0.00     17.46      0.00
   0.00000000   0.00000000   0.00011872          0.00      0.00     17.46


     Writing output data file bto.save
 
     init_run     :      0.09s CPU      0.10s WALL (       1 calls)
     electrons    :      2.35s CPU      2.42s WALL (       1 calls)
     forces       :      0.02s CPU      0.02s WALL (       1 calls)
     stress       :      0.05s CPU      0.05s WALL (       1 calls)

     Called by init_run:
     wfcinit      :      0.01s CPU      0.02s WALL (       1 calls)
     potinit      :      0.01s CPU      0.01s WALL (       1 calls)

     Called by electrons:
     c_bands      :      1.63s CPU      1.67s WALL (      34 calls)
     sum_band     :      0.45s CPU      0.46s WALL (      34 calls)
     v_of_rho     :      0.01s CPU      0.02s WALL (      35 calls)
     newd         :      0.22s CPU      0.22s WALL (      35 calls)
     mix_rho      :      0.03s CPU      0.03s WALL (      34 calls)

     Called by c_bands:
     init_us_2    :      0.01s CPU      0.01s WALL (     284 calls)
     cegterg      :      1.56s CPU      1.59s WALL (     136 calls)

     Called by sum_band:
     sum_band:bec :      0.00s CPU      0.00s WALL (     136 calls)
     addusdens    :      0.24s CPU      0.25s WALL (      34 calls)

     Called by *egterg:
     h_psi        :      0.82s CPU      0.87s WALL (     525 calls)
     s_psi        :      0.02s CPU      0.02s WALL (     525 calls)
     g_psi        :      0.00s CPU      0.00s WALL (     385 calls)
     cdiaghg      :      0.53s CPU      0.49s WALL (     521 calls)

     Called by h_psi:
     h_psi:pot    :      0.82s CPU      0.87s WALL (     525 calls)
     h_psi:calbec :      0.06s CPU      0.05s WALL (     525 calls)
     vloc_psi     :      0.75s CPU      0.80s WALL (     525 calls)
     add_vuspsi   :      0.02s CPU      0.02s WALL (     525 calls)

     General routines
     calbec       :      0.07s CPU      0.07s WALL (     681 calls)
     fft          :      0.03s CPU      0.04s WALL (     316 calls)
     ffts         :      0.00s CPU      0.01s WALL (      69 calls)
     fftw         :      0.83s CPU      0.88s WALL (   20770 calls)
     interpolate  :      0.01s CPU      0.01s WALL (      69 calls)
     davcio       :      0.00s CPU      0.00s WALL (       4 calls)
 
     Parallel routines
     fft_scatter  :      0.49s CPU      0.53s WALL (   21155 calls)
 
     PWSCF        :     2.68s CPU         2.85s WALL

 
   This run was terminated on:   0:13: 4  31Dec2017            

=------------------------------------------------------------------------------=
   JOB DONE.
=------------------------------------------------------------------------------=
