
     Program PWSCF v.6.1 (svn rev. 13369) starts on 31Dec2017 at  0:12:36 

     This program is part of the open-source Quantum ESPRESSO suite
     for quantum simulation of materials; please cite
         "P. Giannozzi et al., J. Phys.:Condens. Matter 21 395502 (2009);
          URL http://www.quantum-espresso.org", 
     in publications or presentations arising from this work. More details at
     http://www.quantum-espresso.org/quote

     Parallel version (MPI), running on    28 processors
     R & G space division:  proc/nbgrp/npool/nimage =      28
     Waiting for input...
     Reading input from standard input

     Current dimensions of program PWSCF are:
     Max number of different atomic species (ntypx) = 10
     Max number of k-points (npk) =  40000
     Max angular momentum in pseudopotentials (lmaxx) =  3

     Subspace diagonalization in iterative solution of the eigenvalue problem:
     a serial algorithm will be used

 
     Parallelization info
     --------------------
     sticks:   dense  smooth     PW     G-vecs:    dense   smooth      PW
     Min          62      31      9                 1956      691     110
     Max          63      32     10                 1961      694     113
     Sum        1749     877    261                54795    19381    3119
 

     Title: 
     cubic BaTiO3 at 7.40 lattice parameter. xc=PZ                              


     bravais-lattice index     =            1
     lattice parameter (alat)  =       7.4000  a.u.
     unit-cell volume          =     405.2240 (a.u.)^3
     number of atoms/cell      =            5
     number of atomic types    =            3
     number of electrons       =        40.00
     number of Kohn-Sham states=           24
     kinetic-energy cutoff     =      50.0000  Ry
     charge density cutoff     =     400.0000  Ry
     convergence threshold     =      1.0E-12
     mixing beta               =       0.6000
     number of iterations used =            8  plain     mixing
     Exchange-correlation      = SLA-PZ-NOGX-NOGC ( 1  1  0  0 0 0)

     celldm(1)=   7.400000  celldm(2)=   0.000000  celldm(3)=   0.000000
     celldm(4)=   0.000000  celldm(5)=   0.000000  celldm(6)=   0.000000

     crystal axes: (cart. coord. in units of alat)
               a(1) = (   1.000000   0.000000   0.000000 )  
               a(2) = (   0.000000   1.000000   0.000000 )  
               a(3) = (   0.000000   0.000000   1.000000 )  

     reciprocal axes: (cart. coord. in units 2 pi/alat)
               b(1) = (  1.000000  0.000000  0.000000 )  
               b(2) = (  0.000000  1.000000  0.000000 )  
               b(3) = (  0.000000  0.000000  1.000000 )  


     PseudoPot. # 1 for O  read from file:
     ../../PSP_DIR/O.pz-van_ak.UPF
     MD5 check sum: d814fcb982dd9af4fc6452aae6bb9318
     Pseudo is Ultrasoft, Zval =  6.0
     Generated by new atomic code, or converted to UPF format
     Using radial grid of  737 points,  4 beta functions with: 
                l(1) =   0
                l(2) =   0
                l(3) =   1
                l(4) =   1
     Q(r) pseudized with  8 coefficients,  rinner =    0.800   0.800   0.800


     PseudoPot. # 2 for Ti read from file:
     ../../PSP_DIR/Ti.pz-sp-van_ak.UPF
     MD5 check sum: 545d0e6e05332b8871a8093f427cb0ca
     Pseudo is Ultrasoft, Zval = 12.0
     Generated by new atomic code, or converted to UPF format
     Using radial grid of  851 points,  6 beta functions with: 
                l(1) =   0
                l(2) =   0
                l(3) =   1
                l(4) =   1
                l(5) =   2
                l(6) =   2
     Q(r) pseudized with  8 coefficients,  rinner =    1.000   1.000   1.000
                                                       1.000   1.000

     PseudoPot. # 3 for Ba read from file:
     ../../PSP_DIR/Ba.pz-sp-hgh.UPF
     MD5 check sum: 155c4e4bbe33bd45901c985a874b3acf
     Pseudo is Norm-conserving, Zval = 10.0
     Generated in analytical, separable form
     Using radial grid of 1251 points,  6 beta functions with: 
                l(1) =   0
                l(2) =   0
                l(3) =   1
                l(4) =   1
                l(5) =   2
                l(6) =   3

     atomic species   valence    mass     pseudopotential
        O              6.00    15.99000     O ( 1.00)
        Ti            12.00    47.88000     Ti( 1.00)
        Ba            10.00   137.33000     Ba( 1.00)

     48 Sym. Ops., with inversion, found



   Cartesian axes

     site n.     atom                  positions (alat units)
         1           Ba  tau(   1) = (   0.0000000   0.0000000   0.0000000  )
         2           Ti  tau(   2) = (   0.5000000   0.5000000   0.5000000  )
         3           O   tau(   3) = (   0.0000000   0.5000000   0.5000000  )
         4           O   tau(   4) = (   0.5000000   0.0000000   0.5000000  )
         5           O   tau(   5) = (   0.5000000   0.5000000   0.0000000  )

     number of k points=    35
                       cart. coord. in units 2pi/alat
        k(    1) = (   0.0500000   0.0500000   0.0500000), wk =   0.0160000
        k(    2) = (   0.0500000   0.0500000   0.1500000), wk =   0.0480000
        k(    3) = (   0.0500000   0.0500000   0.2500000), wk =   0.0480000
        k(    4) = (   0.0500000   0.0500000   0.3500000), wk =   0.0480000
        k(    5) = (   0.0500000   0.0500000   0.4500000), wk =   0.0480000
        k(    6) = (   0.0500000   0.1500000   0.1500000), wk =   0.0480000
        k(    7) = (   0.0500000   0.1500000   0.2500000), wk =   0.0960000
        k(    8) = (   0.0500000   0.1500000   0.3500000), wk =   0.0960000
        k(    9) = (   0.0500000   0.1500000   0.4500000), wk =   0.0960000
        k(   10) = (   0.0500000   0.2500000   0.2500000), wk =   0.0480000
        k(   11) = (   0.0500000   0.2500000   0.3500000), wk =   0.0960000
        k(   12) = (   0.0500000   0.2500000   0.4500000), wk =   0.0960000
        k(   13) = (   0.0500000   0.3500000   0.3500000), wk =   0.0480000
        k(   14) = (   0.0500000   0.3500000   0.4500000), wk =   0.0960000
        k(   15) = (   0.0500000   0.4500000   0.4500000), wk =   0.0480000
        k(   16) = (   0.1500000   0.1500000   0.1500000), wk =   0.0160000
        k(   17) = (   0.1500000   0.1500000   0.2500000), wk =   0.0480000
        k(   18) = (   0.1500000   0.1500000   0.3500000), wk =   0.0480000
        k(   19) = (   0.1500000   0.1500000   0.4500000), wk =   0.0480000
        k(   20) = (   0.1500000   0.2500000   0.2500000), wk =   0.0480000
        k(   21) = (   0.1500000   0.2500000   0.3500000), wk =   0.0960000
        k(   22) = (   0.1500000   0.2500000   0.4500000), wk =   0.0960000
        k(   23) = (   0.1500000   0.3500000   0.3500000), wk =   0.0480000
        k(   24) = (   0.1500000   0.3500000   0.4500000), wk =   0.0960000
        k(   25) = (   0.1500000   0.4500000   0.4500000), wk =   0.0480000
        k(   26) = (   0.2500000   0.2500000   0.2500000), wk =   0.0160000
        k(   27) = (   0.2500000   0.2500000   0.3500000), wk =   0.0480000
        k(   28) = (   0.2500000   0.2500000   0.4500000), wk =   0.0480000
        k(   29) = (   0.2500000   0.3500000   0.3500000), wk =   0.0480000
        k(   30) = (   0.2500000   0.3500000   0.4500000), wk =   0.0960000
        k(   31) = (   0.2500000   0.4500000   0.4500000), wk =   0.0480000
        k(   32) = (   0.3500000   0.3500000   0.3500000), wk =   0.0160000
        k(   33) = (   0.3500000   0.3500000   0.4500000), wk =   0.0480000
        k(   34) = (   0.3500000   0.4500000   0.4500000), wk =   0.0480000
        k(   35) = (   0.4500000   0.4500000   0.4500000), wk =   0.0160000

     Dense  grid:    54795 G-vectors     FFT dimensions: (  48,  48,  48)

     Smooth grid:    19381 G-vectors     FFT dimensions: (  36,  36,  36)

     Estimated max dynamical RAM per process >       2.92MB

     Estimated total allocated dynamical RAM >      81.85MB

     Initial potential from superposition of free atoms

     starting charge   28.99996, renormalised to   40.00000
     Starting wfc are   22 randomized atomic wfcs +    2 random wfc

     total cpu time spent up to now is        1.2 secs

     per-process dynamical memory:    31.8 Mb

     Self-consistent Calculation

     iteration #  1     ecut=    50.00 Ry     beta=0.60
     Davidson diagonalization with overlap
     ethr =  1.00E-02,  avg # of iterations = 11.8

     total cpu time spent up to now is        2.9 secs

     total energy              =      24.71692167 Ry
     Harris-Foulkes estimate   =    -365.17253529 Ry
     estimated scf accuracy    <     516.32556012 Ry

     iteration #  2     ecut=    50.00 Ry     beta=0.60
     Davidson diagonalization with overlap
     ethr =  1.00E-02,  avg # of iterations =  7.7

     total cpu time spent up to now is        4.2 secs

     total energy              =    -276.95735335 Ry
     Harris-Foulkes estimate   =    -431.61129079 Ry
     estimated scf accuracy    <     288.94580963 Ry

     iteration #  3     ecut=    50.00 Ry     beta=0.60
     Davidson diagonalization with overlap
     ethr =  1.00E-02,  avg # of iterations =  3.8

     total cpu time spent up to now is        4.9 secs

     total energy              =    -271.36408776 Ry
     Harris-Foulkes estimate   =    -293.12190503 Ry
     estimated scf accuracy    <      73.97587538 Ry

     iteration #  4     ecut=    50.00 Ry     beta=0.60
     Davidson diagonalization with overlap
     ethr =  1.00E-02,  avg # of iterations =  4.1

     negative rho (up, down):  2.030E-07 0.000E+00

     total cpu time spent up to now is        5.4 secs

     total energy              =    -268.10040367 Ry
     Harris-Foulkes estimate   =    -273.53329424 Ry
     estimated scf accuracy    <      30.42136823 Ry

     iteration #  5     ecut=    50.00 Ry     beta=0.60
     Davidson diagonalization with overlap
     ethr =  1.00E-02,  avg # of iterations =  3.0

     negative rho (up, down):  5.830E-08 0.000E+00

     total cpu time spent up to now is        5.9 secs

     total energy              =    -268.92985303 Ry
     Harris-Foulkes estimate   =    -268.91481457 Ry
     estimated scf accuracy    <      11.16387706 Ry

     iteration #  6     ecut=    50.00 Ry     beta=0.60
     Davidson diagonalization with overlap
     ethr =  1.00E-02,  avg # of iterations =  1.4

     total cpu time spent up to now is        6.2 secs

     total energy              =    -268.47421228 Ry
     Harris-Foulkes estimate   =    -268.96432418 Ry
     estimated scf accuracy    <      10.91126779 Ry

     iteration #  7     ecut=    50.00 Ry     beta=0.60
     Davidson diagonalization with overlap
     ethr =  1.00E-02,  avg # of iterations =  1.4

     total cpu time spent up to now is        6.6 secs

     total energy              =    -268.28850093 Ry
     Harris-Foulkes estimate   =    -268.70783841 Ry
     estimated scf accuracy    <       9.40178702 Ry

     iteration #  8     ecut=    50.00 Ry     beta=0.60
     Davidson diagonalization with overlap
     ethr =  1.00E-02,  avg # of iterations =  1.4

     negative rho (up, down):  2.723E-07 0.000E+00

     total cpu time spent up to now is        6.9 secs

     total energy              =    -267.66557712 Ry
     Harris-Foulkes estimate   =    -268.47604883 Ry
     estimated scf accuracy    <      11.26384037 Ry

     iteration #  9     ecut=    50.00 Ry     beta=0.60
     Davidson diagonalization with overlap
     ethr =  1.00E-02,  avg # of iterations =  1.1

     negative rho (up, down):  1.564E-07 0.000E+00

     total cpu time spent up to now is        7.2 secs

     total energy              =    -266.45604401 Ry
     Harris-Foulkes estimate   =    -267.72639715 Ry
     estimated scf accuracy    <      10.60472171 Ry

     iteration # 10     ecut=    50.00 Ry     beta=0.60
     Davidson diagonalization with overlap
     ethr =  1.00E-02,  avg # of iterations =  1.0

     negative rho (up, down):  1.156E-04 0.000E+00

     total cpu time spent up to now is        7.6 secs

          k = 0.0500 0.0500 0.0500     band energies (ev):

   -42.7249 -19.9754 -19.9750 -19.9750 -10.5581  -9.4775  -9.4766  -2.8609
     3.6592   3.6596   3.7001   5.6515   5.6516   5.7439   5.9008   5.9021
     5.9028  11.1210  11.2381  11.2612  12.9169  12.9170  12.9270  15.9421

          k = 0.0500 0.0500 0.1500     band energies (ev):

   -42.7241 -20.0130 -19.9742 -19.9739 -10.4592  -9.4732  -9.4057  -2.9496
     3.6855   3.7211   3.7804   5.4525   5.4748   5.6721   5.7325   5.8657
     5.8996  10.5999  11.0929  11.1002  12.9419  13.2393  13.2493  15.9485

          k = 0.0500 0.0500 0.2500     band energies (ev):

   -42.7234 -20.0733 -19.9724 -19.9722 -10.3085  -9.4661  -9.2777  -3.0864
     3.6237   3.8410   3.8830   5.1688   5.1798   5.4578   5.6500   5.8808
     5.9211   9.9154  10.8395  10.8915  12.9793  13.7567  13.7853  15.9569

          k = 0.0500 0.0500 0.3500     band energies (ev):

   -42.7224 -20.1315 -19.9708 -19.9705 -10.1698  -9.4591  -9.1294  -3.2133
     3.3125   4.0104   4.0675   4.8608   4.9112   5.4723   5.5499   5.9054
     5.9555   9.2485  10.6340  10.6922  13.0175  14.2923  14.3115  15.9598

          k = 0.0500 0.0500 0.4500     band energies (ev):

   -42.7218 -20.1674 -19.9696 -19.9694 -10.0905  -9.4547  -9.0273  -3.2865
     3.0412   4.2021   4.3133   4.5918   4.6044   5.4854   5.6573   5.8904
     5.9800   8.8222  10.4706  10.5722  13.0420  14.6248  14.6321  15.9638

          k = 0.0500 0.1500 0.1500     band energies (ev):

   -42.7237 -20.0126 -20.0110 -19.9730 -10.3586  -9.4331  -9.3724  -3.0261
     3.6766   3.7573   3.8588   5.1392   5.3588   5.6119   5.7321   5.8255
     5.8356  10.2261  10.9935  11.0081  13.2359  13.2850  13.5028  16.1421

          k = 0.0500 0.1500 0.2500     band energies (ev):

   -42.7228 -20.0720 -20.0100 -19.9714 -10.2062  -9.4116  -9.2587  -3.1448
     3.6220   3.8028   3.9317   4.7972   5.1013   5.4155   5.7099   5.8151
     5.8694   9.7356  10.7219  10.8377  13.2764  13.7591  13.9598  16.2063

          k = 0.0500 0.1500 0.3500     band energies (ev):

   -42.7218 -20.1302 -20.0081 -19.9696 -10.0691  -9.3998  -9.1113  -3.2558
     3.3180   3.8835   4.0819   4.5567   4.8999   5.2829   5.6808   5.8277
     5.8630   9.3314  10.4714  10.6672  13.3005  14.2870  14.4417  16.2212

          k = 0.0500 0.1500 0.4500     band energies (ev):

   -42.7213 -20.1657 -20.0068 -19.9684  -9.9927  -9.3931  -9.0069  -3.3229
     3.0351   3.9831   4.2121   4.4684   4.6585   5.3852   5.5636   5.8234
     5.8579   9.1191  10.2951  10.5669  13.3159  14.5965  14.7599  16.2303

          k = 0.0500 0.2500 0.2500     band energies (ev):

   -42.7219 -20.0708 -20.0685 -19.9697 -10.0570  -9.3268  -9.2016  -3.2359
     3.6236   3.6822   3.9805   4.4720   4.8268   5.3279   5.5535   5.7043
     6.0464   9.5462  10.5360  10.7150  13.7371  13.7898  14.3155  16.3986

          k = 0.0500 0.2500 0.3500     band energies (ev):

   -42.7210 -20.1279 -20.0675 -19.9679  -9.9316  -9.2745  -9.0784  -3.3173
     3.3185   3.6945   3.9817   4.3854   4.6606   5.1381   5.4223   5.6352
     6.1505   9.4848  10.2638  10.5773  13.7672  14.2551  14.7277  16.4690

          k = 0.0500 0.2500 0.4500     band energies (ev):

   -42.7204 -20.1633 -20.0664 -19.9667  -9.8664  -9.2535  -8.9735  -3.3708
     3.0324   3.7751   3.8852   4.4796   4.6505   4.9919   5.2261   5.6375
     6.1909   9.5556  10.0428  10.4759  13.7819  14.5713  15.0102  16.4890

          k = 0.0500 0.3500 0.3500     band energies (ev):

   -42.7199 -20.1264 -20.1250 -19.9661  -9.8289  -9.1241  -9.0253  -3.3968
     3.2111   3.4621   3.8850   4.3486   4.4610   5.1066   5.1110   5.4496
     6.3680   9.6633  10.0809  10.4805  14.2349  14.2389  15.0444  16.5855

          k = 0.0500 0.3500 0.4500     band energies (ev):

   -42.7193 -20.1612 -20.1245 -19.9649  -9.7805  -9.0636  -8.9390  -3.4434
     2.9702   3.4470   3.8267   4.2887   4.5486   4.8755   4.9876   5.3942
     6.4750   9.7599  10.0193  10.3946  14.2361  14.5306  15.2820  16.6184

          k = 0.0500 0.4500 0.4500     band energies (ev):

   -42.7186 -20.1599 -20.1598 -19.9638  -9.7424  -8.9285  -8.9134  -3.4806
     2.8365   3.3074   3.9310   4.1040   4.3189   4.8946   4.9832   5.2086
     6.6225   9.6367  10.2530  10.3439  14.5057  14.5270  15.4874  16.6629

          k = 0.1500 0.1500 0.1500     band energies (ev):

   -42.7231 -20.0123 -20.0100 -20.0100 -10.2533  -9.3686  -9.3675  -3.0876
     3.6805   3.6822   3.9299   5.0431   5.0461   5.5376   5.7361   5.7390
     5.9056   9.8265  10.9577  10.9605  13.4925  13.4925  13.5688  16.5675

          k = 0.1500 0.1500 0.2500     band energies (ev):

   -42.7222 -20.0706 -20.0097 -20.0082 -10.0954  -9.3603  -9.2450  -3.1857
     3.6022   3.6814   3.9079   4.7556   4.7650   5.4116   5.6493   5.7987
     5.9561   9.4370  10.7461  10.8698  13.5310  13.9316  13.9886  16.5685

          k = 0.1500 0.1500 0.3500     band energies (ev):

   -42.7213 -20.1290 -20.0077 -20.0063  -9.9553  -9.3519  -9.0955  -3.2803
     3.3201   3.6675   3.9216   4.5568   4.6749   5.2355   5.5850   5.8471
     5.9552   9.2670  10.3990  10.7737  13.5710  14.4218  14.4522  16.5678

          k = 0.1500 0.1500 0.4500     band energies (ev):

   -42.7207 -20.1643 -20.0065 -20.0051  -9.8783  -9.3468  -8.9888  -3.3364
     3.0444   3.6481   3.9954   4.4643   4.7171   5.1102   5.4847   5.8786
     5.9373   9.3046  10.0826  10.7096  13.5649  14.7437  14.7500  16.5650

          k = 0.1500 0.2500 0.2500     band energies (ev):

   -42.7213 -20.0697 -20.0673 -20.0070  -9.9329  -9.2814  -9.1951  -3.2527
     3.5452   3.5698   3.7761   4.4683   4.5309   5.2273   5.6665   5.7786
     6.0904   9.2238  10.7435  10.7483  13.9575  14.0015  14.3285  16.8558

          k = 0.1500 0.2500 0.3500     band energies (ev):

   -42.7204 -20.1268 -20.0664 -20.0052  -9.7969  -9.2445  -9.0669  -3.3199
     3.3131   3.4739   3.6441   4.2660   4.4779   4.9994   5.5963   5.7930
     6.1812   9.2858  10.4383  10.7318  13.9856  14.4278  14.7231  16.9190

          k = 0.1500 0.2500 0.4500     band energies (ev):

   -42.7198 -20.1619 -20.0651 -20.0040  -9.7273  -9.2307  -8.9587  -3.3521
     3.0340   3.4010   3.6616   4.2251   4.5321   4.7800   5.4958   5.8214
     6.2174   9.5845  10.0450  10.7159  13.9943  14.7209  15.0009  16.9299

          k = 0.1500 0.3500 0.3500     band energies (ev):

   -42.7195 -20.1252 -20.1237 -20.0034  -9.6805  -9.1054  -9.0173  -3.3513
     3.2065   3.3736   3.3985   3.8952   4.3846   4.7681   5.6351   5.6883
     6.3810   9.4789  10.4937  10.5496  14.4091  14.4273  15.0583  17.0642

          k = 0.1500 0.3500 0.4500     band energies (ev):

   -42.7189 -20.1597 -20.1231 -20.0023  -9.6282  -9.0523  -8.9278  -3.3793
     2.9670   3.3228   3.3815   3.7811   4.2073   4.6937   5.5597   5.7026
     6.4830   9.7724  10.2199  10.5852  14.4140  14.6978  15.2898  17.0997

          k = 0.1500 0.4500 0.4500     band energies (ev):

   -42.7183 -20.1585 -20.1583 -20.0011  -9.5876  -8.9188  -8.9046  -3.4075
     2.8292   3.2949   3.3929   3.5157   3.8645   4.7115   5.6045   5.6097
     6.6269   9.8997  10.3987  10.4320  14.6842  14.6855  15.4915  17.1444

          k = 0.2500 0.2500 0.2500     band energies (ev):

   -42.7204 -20.0688 -20.0654 -20.0653  -9.7476  -9.1852  -9.1844  -3.2803
     3.3704   3.3711   3.6700   4.2301   4.2381   4.8808   5.8817   5.8826
     6.1786   9.0878  10.7948  10.7965  14.3103  14.3125  14.3832  17.5357

          k = 0.2500 0.2500 0.3500     band energies (ev):

   -42.7195 -20.1243 -20.0656 -20.0634  -9.5947  -9.1747  -9.0460  -3.3097
     3.1694   3.2556   3.3814   4.0608   4.1334   4.5314   5.9149   5.9824
     6.2669   9.2835  10.5880  10.8470  14.3363  14.7074  14.7304  17.5240

          k = 0.2500 0.2500 0.4500     band energies (ev):

   -42.7189 -20.1595 -20.0642 -20.0621  -9.5204  -9.1682  -8.9345  -3.3183
     3.0157   3.0436   3.3323   4.0799   4.1035   4.2396   5.8932   6.0241
     6.3117   9.7025  10.1944  10.8984  14.3424  14.9758  15.0036  17.5136

          k = 0.2500 0.3500 0.3500     band energies (ev):

   -42.7186 -20.1230 -20.1214 -20.0626  -9.4401  -9.0667  -9.0040  -3.3003
     2.9893   3.0766   3.1739   3.6977   3.9782   4.1645   6.0656   6.0670
     6.4079   9.5418  10.6962  10.7974  14.7051  14.7207  15.0506  17.7970

          k = 0.2500 0.3500 0.4500     band energies (ev):

   -42.7180 -20.1575 -20.1209 -20.0612  -9.3771  -9.0306  -8.9094  -3.2954
     2.8656   2.9418   3.0588   3.5906   3.6891   4.1094   6.0793   6.1140
     6.5003   9.9420  10.4514  10.8561  14.7122  14.9682  15.2852  17.8282

          k = 0.2500 0.4500 0.4500     band energies (ev):

   -42.7174 -20.1562 -20.1559 -20.0599  -9.3289  -8.9031  -8.8903  -3.2752
     2.7935   2.8805   2.9245   3.3028   3.3578   4.1088   6.1327   6.1345
     6.6339  10.2485  10.6189  10.6886  14.9589  14.9644  15.5007  17.8899

          k = 0.3500 0.3500 0.3500     band energies (ev):

   -42.7177 -20.1215 -20.1197 -20.1190  -9.2247  -8.9920  -8.9912  -3.2375
     2.7612   2.7613   3.0407   3.5575   3.6449   3.6558   6.3068   6.3069
     6.4667   9.8518  10.8729  10.8763  15.0423  15.0437  15.0500  18.4901

          k = 0.3500 0.3500 0.4500     band energies (ev):

   -42.7171 -20.1554 -20.1196 -20.1181  -9.1400  -8.9840  -8.8909  -3.1959
     2.5840   2.7077   2.8681   3.1670   3.5268   3.6360   6.3691   6.4024
     6.5440  10.2572  10.7129  11.0006  15.0404  15.2545  15.3013  18.4602

          k = 0.3500 0.4500 0.4500     band energies (ev):

   -42.7166 -20.1539 -20.1537 -20.1173  -9.0589  -8.8865  -8.8758  -3.1329
     2.4995   2.5419   2.7184   2.7953   3.3569   3.5821   6.4758   6.4803
     6.6411  10.6093  10.8711  10.9642  15.2672  15.2734  15.5019  18.6147

          k = 0.4500 0.4500 0.4500     band energies (ev):

   -42.7160 -20.1525 -20.1516 -20.1515  -8.8946  -8.8667  -8.8666  -3.0381
     2.3407   2.3407   2.4429   2.6176   3.3369   3.3572   6.6333   6.6333
     6.6534  10.9150  11.0601  11.0603  15.4887  15.5091  15.5104  19.1761

     highest occupied, lowest unoccupied level (ev):    11.2612   12.9169

!    total energy              =    -264.37636435 Ry
     Harris-Foulkes estimate   =    -267.02448780 Ry
     estimated scf accuracy    <       5.43929292 Ry

     The total energy is the sum of the following terms:

     one-electron contribution =     -69.57623949 Ry
     hartree contribution      =      49.93027176 Ry
     xc contribution           =     -42.48021367 Ry
     ewald contribution        =    -211.91466263 Ry
     scf correction            =       9.66447968 Ry

     iteration # 11     ecut=    50.00 Ry     beta=0.60
     Davidson diagonalization with overlap
     ethr =  1.00E-02,  avg # of iterations =  3.2

     negative rho (up, down):  7.476E-04 0.000E+00

     total cpu time spent up to now is        8.1 secs

     total energy              =    -269.38694401 Ry
     Harris-Foulkes estimate   =    -270.07970614 Ry
     estimated scf accuracy    <      47.26624727 Ry

     iteration # 12     ecut=    50.00 Ry     beta=0.60
     Davidson diagonalization with overlap
     ethr =  1.00E-02,  avg # of iterations =  1.0

     negative rho (up, down):  2.276E-03 0.000E+00

     total cpu time spent up to now is        8.5 secs

     total energy              =    -263.70560099 Ry
     Harris-Foulkes estimate   =    -269.43287642 Ry
     estimated scf accuracy    <      44.36586388 Ry

     iteration # 13     ecut=    50.00 Ry     beta=0.60
     Davidson diagonalization with overlap
     ethr =  1.00E-02,  avg # of iterations =  3.4

     negative rho (up, down):  1.790E-06 0.000E+00

     total cpu time spent up to now is        8.9 secs

     total energy              =    -264.52999468 Ry
     Harris-Foulkes estimate   =    -265.37402846 Ry
     estimated scf accuracy    <       3.99237294 Ry

     iteration # 14     ecut=    50.00 Ry     beta=0.60
     Davidson diagonalization with overlap
     ethr =  9.98E-03,  avg # of iterations =  2.0

     negative rho (up, down):  1.064E-06 0.000E+00

     total cpu time spent up to now is        9.3 secs

     total energy              =    -264.86287150 Ry
     Harris-Foulkes estimate   =    -264.97857897 Ry
     estimated scf accuracy    <       0.56093341 Ry

     iteration # 15     ecut=    50.00 Ry     beta=0.60
     Davidson diagonalization with overlap
     ethr =  1.40E-03,  avg # of iterations =  2.8

     negative rho (up, down):  6.164E-07 0.000E+00

     total cpu time spent up to now is        9.7 secs

     total energy              =    -264.98823223 Ry
     Harris-Foulkes estimate   =    -264.97005108 Ry
     estimated scf accuracy    <       0.58581777 Ry

     iteration # 16     ecut=    50.00 Ry     beta=0.60
     Davidson diagonalization with overlap
     ethr =  1.40E-03,  avg # of iterations =  1.9

     negative rho (up, down):  4.695E-07 0.000E+00

     total cpu time spent up to now is       10.1 secs

     total energy              =    -265.06267039 Ry
     Harris-Foulkes estimate   =    -265.01673300 Ry
     estimated scf accuracy    <       0.77123927 Ry

     iteration # 17     ecut=    50.00 Ry     beta=0.60
     Davidson diagonalization with overlap
     ethr =  1.40E-03,  avg # of iterations =  4.2

     negative rho (up, down):  5.902E-07 0.000E+00

     total cpu time spent up to now is       10.6 secs

     total energy              =    -265.16266602 Ry
     Harris-Foulkes estimate   =    -265.11984500 Ry
     estimated scf accuracy    <       0.95437787 Ry

     iteration # 18     ecut=    50.00 Ry     beta=0.60
     Davidson diagonalization with overlap
     ethr =  1.40E-03,  avg # of iterations =  1.7

     negative rho (up, down):  8.569E-07 0.000E+00

     total cpu time spent up to now is       11.0 secs

     total energy              =    -264.93216575 Ry
     Harris-Foulkes estimate   =    -265.18106953 Ry
     estimated scf accuracy    <       1.03551060 Ry

     iteration # 19     ecut=    50.00 Ry     beta=0.60
     Davidson diagonalization with overlap
     ethr =  1.40E-03,  avg # of iterations =  1.1

     negative rho (up, down):  8.811E-07 0.000E+00

     total cpu time spent up to now is       11.3 secs

     total energy              =    -264.86767533 Ry
     Harris-Foulkes estimate   =    -264.94861145 Ry
     estimated scf accuracy    <       0.59886169 Ry

     iteration # 20     ecut=    50.00 Ry     beta=0.60
     Davidson diagonalization with overlap
     ethr =  1.40E-03,  avg # of iterations =  2.4

     negative rho (up, down):  8.709E-07 0.000E+00

     total cpu time spent up to now is       11.7 secs

          k = 0.0500 0.0500 0.0500     band energies (ev):

   -41.3060 -18.1985 -18.1975 -18.1974 -14.7167  -5.4697  -4.7160  -4.7156
     0.4397   0.4397   0.4963   8.9780   9.0945   9.0945   9.7659   9.7662
     9.9333  11.0708  11.1765  11.1768  14.8449  14.8527  14.8613  15.7791

          k = 0.0500 0.0500 0.1500     band energies (ev):

   -41.3056 -18.2219 -18.1971 -18.1968 -14.6898  -5.5015  -4.7057  -4.6854
     0.4650   0.4660   0.6215   8.7004   9.0024   9.0224   9.4740   9.5969
     9.8682  10.6229  11.0495  11.0661  14.9124  15.2330  15.2808  16.2205

          k = 0.0500 0.0500 0.2500     band energies (ev):

   -41.3049 -18.2603 -18.1955 -18.1954 -14.6455  -5.6099  -4.6890  -4.5637
     0.5096   0.5270   0.7961   8.2987   8.7892   8.8048   9.2045   9.3712
     9.6965  10.0421  10.8838  10.9046  15.0580  15.8579  15.9792  16.8929

          k = 0.0500 0.0500 0.3500     band energies (ev):

   -41.3042 -18.2979 -18.1941 -18.1939 -14.6008  -5.7526  -4.6722  -4.3885
     0.5542   0.5959   0.9564   7.9001   8.5433   8.5485   8.9869   9.0564
     9.5671   9.7281  10.7252  10.7589  15.1587  16.5227  16.5795  17.5679

          k = 0.0500 0.0500 0.4500     band energies (ev):

   -41.3038 -18.3210 -18.1933 -18.1930 -14.5731  -5.8476  -4.6618  -4.2638
     0.5823   0.6407   1.0497   7.6451   8.3907   8.4061   8.7978   8.8477
     9.5110   9.6489  10.6289  10.6756  15.2330  16.9438  16.9568  17.9984

          k = 0.0500 0.1500 0.1500     band energies (ev):

   -41.3052 -18.2229 -18.2183 -18.1960 -14.6649  -5.4951  -4.6976  -4.6744
     0.4532   0.4895   0.7355   8.4136   8.9442   8.9961   9.1676   9.4033
     9.9762  10.3349  10.8875  10.9364  15.2762  15.4292  15.4510  16.6723

          k = 0.0500 0.1500 0.2500     band energies (ev):

   -41.3045 -18.2586 -18.2184 -18.1947 -14.6249  -5.5472  -4.6746  -4.5916
     0.4788   0.5413   0.8534   8.0651   8.7327   8.7972   8.8822   9.1990
     9.8336  10.0259  10.7340  10.7549  15.4318  15.8517  15.9864  17.3153

          k = 0.0500 0.1500 0.3500     band energies (ev):

   -41.3038 -18.2955 -18.2162 -18.1932 -14.5847  -5.6505  -4.6490  -4.4438
     0.5118   0.6221   0.9253   7.7623   8.4146   8.5730   8.5881   9.0511
     9.5917  10.0265  10.5412  10.5933  15.5135  16.5616  16.7219  17.9504

          k = 0.0500 0.1500 0.4500     band energies (ev):

   -41.3034 -18.3181 -18.2151 -18.1923 -14.5599  -5.7276  -4.6333  -4.3303
     0.5310   0.6936   0.9446   7.5732   8.1704   8.3993   8.4901   8.9419
     9.4954  10.1333  10.3386  10.4982  15.5871  16.9488  17.7264  18.6675

          k = 0.0500 0.2500 0.2500     band energies (ev):

   -41.3038 -18.2585 -18.2520 -18.1932 -14.5920  -5.4872  -4.6677  -4.5699
     0.4725   0.5726   0.8888   7.7806   8.4020   8.6664   8.7595   8.9602
     9.6480  10.0611  10.5414  10.7280  15.9612  16.0757  16.1446  17.9161

          k = 0.0500 0.2500 0.3500     band energies (ev):

   -41.3031 -18.2916 -18.2521 -18.1919 -14.5586  -5.4904  -4.6332  -4.5001
     0.4890   0.6296   0.8714   7.5474   7.9949   8.4703   8.5605   8.8443
     9.5974  10.0738  10.3545  10.7051  16.1001  16.6265  16.7245  18.5001

          k = 0.0500 0.2500 0.4500     band energies (ev):

   -41.3027 -18.3136 -18.2503 -18.1910 -14.5378  -5.5208  -4.5992  -4.4349
     0.5009   0.7153   0.8066   7.4575   7.6342   8.3810   8.4149   8.8102
     9.6668  10.0226  10.2597  10.6545  16.1377  17.0479  17.0882  18.8450

          k = 0.0500 0.3500 0.3500     band energies (ev):

   -41.3025 -18.2895 -18.2853 -18.1906 -14.5320  -5.3512  -4.6364  -4.5089
     0.4911   0.6168   0.8232   7.2986   7.6730   8.2166   8.5283   8.5890
     9.7111  10.1503  10.1770  10.8653  16.6187  16.6838  17.1239  19.2765

          k = 0.0500 0.3500 0.4500     band energies (ev):

   -41.3021 -18.3090 -18.2849 -18.1897 -14.5156  -5.2899  -4.5983  -4.5254
     0.4966   0.6076   0.7967   7.1618   7.4007   8.0973   8.3869   8.5503
     9.9091  10.0365  10.1743  10.9276  16.6964  17.0175  17.4970  19.0144

          k = 0.0500 0.4500 0.4500     band energies (ev):

   -41.3017 -18.3064 -18.3059 -18.1888 -14.5017  -5.1252  -4.6165  -4.5824
     0.5033   0.5262   0.8090   6.9598   7.2503   7.9180   8.3795   8.3827
     9.8758  10.1928  10.2605  11.0495  17.0208  17.0765  17.7070  18.7002

          k = 0.1500 0.1500 0.1500     band energies (ev):

   -41.3047 -18.2231 -18.2175 -18.2174 -14.6423  -5.4636  -4.6798  -4.6796
     0.4405   0.4406   0.8655   8.1366   8.9169   8.9187   9.1208   9.1209
    10.0490  10.1410  10.7821  10.7845  15.4742  15.4769  16.8938  17.0064

          k = 0.1500 0.1500 0.2500     band energies (ev):

   -41.3041 -18.2569 -18.2185 -18.2160 -14.6059  -5.4741  -4.6501  -4.6174
     0.4185   0.4663   0.9612   7.8275   8.7104   8.7161   8.9218   8.9754
     9.7085  10.1614  10.6180  10.6370  15.7770  15.8857  16.1373  17.6013

          k = 0.1500 0.1500 0.3500     band energies (ev):

   -41.3034 -18.2933 -18.2161 -18.2143 -14.5690  -5.5446  -4.6197  -4.4815
     0.3947   0.5726   0.9644   7.6166   8.2879   8.5693   8.6474   8.8524
     9.7082  10.0982  10.4440  10.4522  15.8194  16.5394  16.9390  18.1944

          k = 0.1500 0.1500 0.4500     band energies (ev):

   -41.3030 -18.3159 -18.2148 -18.2135 -14.5462  -5.6062  -4.6006  -4.3726
     0.3789   0.7238   0.8744   7.5117   7.9852   8.4543   8.5527   8.7216
     9.8739  10.0531  10.2175  10.3447  15.8737  16.9200  17.0323  18.5245

          k = 0.1500 0.2500 0.2500     band energies (ev):

   -41.3034 -18.2567 -18.2509 -18.2155 -14.5746  -5.3941  -4.6370  -4.5867
     0.3894   0.3982   1.0049   7.5841   8.4766   8.6293   8.8418   8.8488
     9.3712  10.2859  10.4419  10.6363  16.1559  16.1611  16.8151  18.2140

          k = 0.1500 0.2500 0.3500     band energies (ev):

   -41.3028 -18.2900 -18.2509 -18.2139 -14.5434  -5.3777  -4.5944  -4.5125
     0.3221   0.4602   0.9449   7.4462   8.0567   8.4752   8.6479   8.7775
     9.3983  10.2560  10.2751  10.6372  16.2660  16.6013  16.7897  18.6346

          k = 0.1500 0.2500 0.4500     band energies (ev):

   -41.3024 -18.3116 -18.2492 -18.2127 -14.5237  -5.3972  -4.5583  -4.4408
     0.2775   0.5862   0.8180   7.4286   7.6899   8.4027   8.5444   8.7128
     9.5583  10.1221  10.2085  10.6078  16.3332  17.0826  17.0879  18.9660

          k = 0.1500 0.3500 0.3500     band energies (ev):

   -41.3021 -18.2878 -18.2843 -18.2124 -14.5173  -5.2300  -4.5935  -4.4941
     0.3249   0.3571   0.8444   7.3374   7.7826   8.2085   8.6309   8.6466
     9.3890  10.1401  10.3329  10.8341  16.7548  16.7727  17.2574  19.3115

          k = 0.1500 0.3500 0.4500     band energies (ev):

   -41.3017 -18.3077 -18.2839 -18.2113 -14.5011  -5.1633  -4.5514  -4.4963
     0.2656   0.4239   0.7155   7.3247   7.4811   8.1031   8.5184   8.6261
     9.4615  10.1698  10.2880  10.9174  16.8235  17.0819  17.6113  18.9274

          k = 0.1500 0.4500 0.4500     band energies (ev):

   -41.3013 -18.3052 -18.3049 -18.2102 -14.4868  -4.9943  -4.5662  -4.5346
     0.3174   0.3333   0.5931   7.2383   7.3391   7.9210   8.5187   8.5217
     9.4052  10.3024  10.3642  11.0602  17.1090  17.1166  17.6456  18.5405

          k = 0.2500 0.2500 0.2500     band energies (ev):

   -41.3028 -18.2554 -18.2493 -18.2493 -14.5469  -5.2687  -4.5859  -4.5857
     0.2765   0.2765   1.0000   7.4327   8.5611   8.5623   8.7724   8.7746
     8.8510  10.4874  10.4885  10.4965  16.3333  16.5593  16.6256  18.5551

          k = 0.2500 0.2500 0.3500     band energies (ev):

   -41.3021 -18.2869 -18.2502 -18.2479 -14.5186  -5.1968  -4.5326  -4.5262
     0.1531   0.2818   0.8702   7.3944   8.1017   8.5357   8.5701   8.7373
     8.9262  10.3371  10.5344  10.5911  16.5601  16.7124  16.9555  18.8796

          k = 0.2500 0.2500 0.4500     band energies (ev):

   -41.3017 -18.3085 -18.2485 -18.2467 -14.5008  -5.1853  -4.4984  -4.4530
     0.0759   0.3739   0.6995   7.4036   7.7596   8.4094   8.5567   8.7063
     9.0833  10.2407  10.5192  10.6090  16.6603  17.2308  17.3031  19.3371

          k = 0.2500 0.3500 0.3500     band energies (ev):

   -41.3015 -18.2852 -18.2824 -18.2472 -14.4931  -5.0303  -4.5206  -4.4704
     0.0669   0.1427   0.6824   7.3961   8.0045   8.2058   8.6300   8.6924
     8.8318  10.3754  10.5481  10.8096  17.0067  17.0164  17.4677  19.0895

          k = 0.2500 0.3500 0.4500     band energies (ev):

   -41.3011 -18.3051 -18.2819 -18.2459 -14.4772  -4.9486  -4.4771  -4.4472
    -0.0141   0.1723   0.4843   7.3418   7.8321   8.1172   8.5594   8.7139
     8.9083  10.3916  10.5542  10.9147  17.0400  17.2728  17.3814  18.7097

          k = 0.2500 0.4500 0.4500     band energies (ev):

   -41.3006 -18.3031 -18.3027 -18.2448 -14.4627  -4.7746  -4.4797  -4.4537
     0.0118   0.0648   0.2662   7.2184   7.8993   7.9268   8.6325   8.6956
     8.8073  10.5355  10.5857  11.0799  17.6284  17.7742  17.9087  18.3033

          k = 0.3500 0.3500 0.3500     band energies (ev):

   -41.3008 -18.2831 -18.2808 -18.2805 -14.4687  -4.8302  -4.4429  -4.4427
    -0.0697  -0.0696   0.4238   7.3883   8.2078   8.2086   8.2099   8.7479
     8.7517  10.6516  10.6521  10.8793  17.2277  17.5913  17.7514  18.9027

          k = 0.3500 0.3500 0.4500     band energies (ev):

   -41.3004 -18.3026 -18.2806 -18.2794 -14.4533  -4.7138  -4.4161  -4.3920
    -0.2007  -0.0669   0.1900   7.2632   8.0723   8.2151   8.2251   8.7811
     8.8129  10.6586  10.8092  10.9704  17.3136  17.4638  17.5067  18.4583

          k = 0.3500 0.4500 0.4500     band energies (ev):

   -41.3000 -18.3009 -18.3006 -18.2786 -14.4388  -4.5420  -4.3860  -4.3693
    -0.2471  -0.1989  -0.0581   7.1265   7.9335   8.1752   8.4365   8.8162
     8.8192  10.8496  10.8772  11.1027  17.6135  18.0289  18.0723  18.1033

          k = 0.4500 0.4500 0.4500     band energies (ev):

   -41.2996 -18.2999 -18.2997 -18.2993 -14.4234  -4.3826  -4.3239  -4.3238
    -0.3608  -0.3606  -0.2856   6.9956   7.9371   7.9372   8.7505   8.8523
     8.8641  11.0811  11.0812  11.1319  17.7128  17.7630  17.8454  18.0080

     highest occupied, lowest unoccupied level (ev):    11.1768   14.8449

!    total energy              =    -264.85674775 Ry
     Harris-Foulkes estimate   =    -264.88104567 Ry
     estimated scf accuracy    <       0.35843796 Ry

     The total energy is the sum of the following terms:

     one-electron contribution =     -64.95355240 Ry
     hartree contribution      =      60.09323969 Ry
     xc contribution           =     -43.02949745 Ry
     ewald contribution        =    -211.91466263 Ry
     scf correction            =      -5.05227495 Ry

     iteration # 21     ecut=    50.00 Ry     beta=0.60
     Davidson diagonalization with overlap
     ethr =  8.96E-04,  avg # of iterations =  1.7

     negative rho (up, down):  8.632E-07 0.000E+00

     total cpu time spent up to now is       12.1 secs

     total energy              =    -264.67976291 Ry
     Harris-Foulkes estimate   =    -264.85950170 Ry
     estimated scf accuracy    <       0.29583502 Ry

     iteration # 22     ecut=    50.00 Ry     beta=0.60
     Davidson diagonalization with overlap
     ethr =  7.40E-04,  avg # of iterations =  4.3

     negative rho (up, down):  7.688E-07 0.000E+00

     total cpu time spent up to now is       12.7 secs

     total energy              =    -264.81168226 Ry
     Harris-Foulkes estimate   =    -264.80205065 Ry
     estimated scf accuracy    <       0.14016772 Ry

     iteration # 23     ecut=    50.00 Ry     beta=0.60
     Davidson diagonalization with overlap
     ethr =  3.50E-04,  avg # of iterations =  1.0

     negative rho (up, down):  7.412E-07 0.000E+00

     total cpu time spent up to now is       13.0 secs

     total energy              =    -264.78239270 Ry
     Harris-Foulkes estimate   =    -264.81296952 Ry
     estimated scf accuracy    <       0.20466179 Ry

     iteration # 24     ecut=    50.00 Ry     beta=0.60
     Davidson diagonalization with overlap
     ethr =  3.50E-04,  avg # of iterations =  1.0

     negative rho (up, down):  6.153E-07 0.000E+00

     total cpu time spent up to now is       13.4 secs

     total energy              =    -264.77315688 Ry
     Harris-Foulkes estimate   =    -264.78877843 Ry
     estimated scf accuracy    <       0.05907660 Ry

     iteration # 25     ecut=    50.00 Ry     beta=0.60
     Davidson diagonalization with overlap
     ethr =  1.48E-04,  avg # of iterations =  3.0

     negative rho (up, down):  5.999E-07 0.000E+00

     total cpu time spent up to now is       13.8 secs

     total energy              =    -264.77973577 Ry
     Harris-Foulkes estimate   =    -264.78028120 Ry
     estimated scf accuracy    <       0.00147217 Ry

     iteration # 26     ecut=    50.00 Ry     beta=0.60
     Davidson diagonalization with overlap
     ethr =  3.68E-06,  avg # of iterations =  4.4

     negative rho (up, down):  6.063E-07 0.000E+00

     total cpu time spent up to now is       14.4 secs

     total energy              =    -264.78001870 Ry
     Harris-Foulkes estimate   =    -264.78007316 Ry
     estimated scf accuracy    <       0.00016061 Ry

     iteration # 27     ecut=    50.00 Ry     beta=0.60
     Davidson diagonalization with overlap
     ethr =  4.02E-07,  avg # of iterations =  2.1

     negative rho (up, down):  6.351E-07 0.000E+00

     total cpu time spent up to now is       14.8 secs

     total energy              =    -264.78002482 Ry
     Harris-Foulkes estimate   =    -264.78003276 Ry
     estimated scf accuracy    <       0.00003509 Ry

     iteration # 28     ecut=    50.00 Ry     beta=0.60
     Davidson diagonalization with overlap
     ethr =  8.77E-08,  avg # of iterations =  2.7

     negative rho (up, down):  6.308E-07 0.000E+00

     total cpu time spent up to now is       15.3 secs

     total energy              =    -264.78002777 Ry
     Harris-Foulkes estimate   =    -264.78003335 Ry
     estimated scf accuracy    <       0.00006110 Ry

     iteration # 29     ecut=    50.00 Ry     beta=0.60
     Davidson diagonalization with overlap
     ethr =  8.77E-08,  avg # of iterations =  1.0

     negative rho (up, down):  6.316E-07 0.000E+00

     total cpu time spent up to now is       15.6 secs

     total energy              =    -264.78001429 Ry
     Harris-Foulkes estimate   =    -264.78002846 Ry
     estimated scf accuracy    <       0.00003828 Ry

     iteration # 30     ecut=    50.00 Ry     beta=0.60
     Davidson diagonalization with overlap
     ethr =  8.77E-08,  avg # of iterations =  2.9

     negative rho (up, down):  6.321E-07 0.000E+00

     total cpu time spent up to now is       16.0 secs

          k = 0.0500 0.0500 0.0500     band energies (ev):

   -44.6638 -21.2602 -21.2600 -21.2600 -13.7683  -5.7314  -5.0357  -5.0357
     1.2115   1.2115   1.2698   8.6175   8.7032   8.7032   9.6005   9.6005
     9.7813  10.7328  10.8603  10.8603  12.9233  12.9521  12.9521  15.5654

          k = 0.0500 0.0500 0.1500     band energies (ev):

   -44.6636 -21.2739 -21.2596 -21.2594 -13.7393  -5.7591  -5.0266  -5.0083
     1.2358   1.2437   1.3891   8.2753   8.6046   8.6256   9.2980   9.3870
     9.7116  10.2872  10.7034  10.7112  12.9683  13.3491  13.3520  15.5753

          k = 0.0500 0.0500 0.2500     band energies (ev):

   -44.6631 -21.2961 -21.2586 -21.2585 -13.6910  -5.8561  -5.0119  -4.8998
     1.2973   1.3075   1.5480   7.7165   8.4176   8.4476   9.0272   9.0964
     9.5122   9.7838  10.4993  10.5129  13.0175  13.9294  13.9338  15.5820

          k = 0.0500 0.0500 0.3500     band energies (ev):

   -44.6626 -21.3180 -21.2577 -21.2576 -13.6417  -5.9872  -4.9970  -4.7420
     1.3526   1.3924   1.6924   7.1671   8.2024   8.2298   8.7843   8.8455
     9.3328   9.5126  10.3090  10.3429  13.0678  14.4630  14.4673  15.5849

          k = 0.0500 0.0500 0.4500     band energies (ev):

   -44.6623 -21.3316 -21.2571 -21.2570 -13.6109  -6.0758  -4.9877  -4.6290
     1.3876   1.4498   1.7760   6.8324   8.0721   8.0917   8.5640   8.7401
     9.2437   9.4291  10.1930  10.2478  13.0997  14.7825  14.7842  15.5852

          k = 0.0500 0.1500 0.1500     band energies (ev):

   -44.6633 -21.2737 -21.2727 -21.2589 -13.7118  -5.7533  -5.0181  -4.9994
     1.2118   1.2703   1.5103   8.0366   8.4310   8.5629   8.9731   9.1769
     9.8291   9.9438  10.5365  10.6039  13.3154  13.4299  13.5915  15.8438

          k = 0.0500 0.1500 0.2500     band energies (ev):

   -44.6628 -21.2952 -21.2721 -21.2580 -13.6669  -5.8003  -4.9984  -4.9243
     1.2372   1.3271   1.6232   7.5866   8.2001   8.3980   8.6325   8.9359
     9.5634   9.8104  10.3084  10.4705  13.4036  13.9545  14.0327  15.9258

          k = 0.0500 0.1500 0.3500     band energies (ev):

   -44.6624 -21.3171 -21.2710 -21.2571 -13.6214  -5.8951  -4.9772  -4.7896
     1.2862   1.4117   1.6786   7.1020   8.0014   8.1781   8.3023   8.7885
     9.3960   9.7694  10.1134  10.2733  13.4486  14.4758  14.5068  15.9440

          k = 0.0500 0.1500 0.4500     band energies (ev):

   -44.6621 -21.3305 -21.2703 -21.2565 -13.5930  -5.9667  -4.9641  -4.6860
     1.3178   1.5012   1.6710   6.7909   7.9063   8.0368   8.0921   8.7195
     9.3299   9.8253  10.0040  10.0693  13.4757  14.7894  14.8105  15.9465

          k = 0.0500 0.2500 0.2500     band energies (ev):

   -44.6624 -21.2947 -21.2931 -21.2571 -13.6279  -5.7475  -4.9877  -4.9076
     1.2090   1.3662   1.6637   7.3406   7.8807   8.0823   8.4333   8.6852
     9.3583   9.9282  10.0457  10.5432  13.8974  14.0496  14.2945  16.1641

          k = 0.0500 0.2500 0.3500     band energies (ev):

   -44.6619 -21.3155 -21.2926 -21.2562 -13.5882  -5.7516  -4.9592  -4.8413
     1.2265   1.4143   1.6461   7.0013   7.5693   7.7675   8.2438   8.5489
     9.3832   9.8163   9.9448  10.5367  13.9934  14.4973  14.6518  16.2499

          k = 0.0500 0.2500 0.4500     band energies (ev):

   -44.6616 -21.3288 -21.2917 -21.2556 -13.5632  -5.7798  -4.9339  -4.7765
     1.2542   1.4663   1.5951   6.7365   7.3506   7.6788   8.0828   8.5181
     9.5247   9.6612   9.8916  10.4877  14.0165  14.8004  14.9124  16.2751

          k = 0.0500 0.3500 0.3500     band energies (ev):

   -44.6614 -21.3145 -21.3135 -21.2553 -13.5543  -5.6282  -4.9551  -4.8515
     1.2051   1.3740   1.6314   6.8417   7.2262   7.3053   8.2140   8.2910
     9.4463   9.6997  10.0721  10.7113  14.4608  14.5530  14.8934  16.3863

          k = 0.0500 0.3500 0.4500     band energies (ev):

   -44.6612 -21.3271 -21.3130 -21.2547 -13.5332  -5.5742  -4.9256  -4.8583
     1.2153   1.3207   1.6345   6.6609   6.9431   7.1952   8.0774   8.2483
     9.3818   9.8745  10.0584  10.7699  14.5162  14.8115  15.0914  16.4309

          k = 0.0500 0.4500 0.4500     band energies (ev):

   -44.6609 -21.3262 -21.3260 -21.2542 -13.5144  -5.4321  -4.9340  -4.9073
     1.2033   1.2298   1.6624   6.5430   6.7227   6.9569   8.0708   8.0772
     9.2554  10.1042  10.1751  10.8890  14.8107  14.8237  15.2438  16.4817

          k = 0.1500 0.1500 0.1500     band energies (ev):

   -44.6630 -21.2735 -21.2721 -21.2721 -13.6861  -5.7254  -5.0029  -5.0029
     1.2027   1.2027   1.6528   7.8016   8.3769   8.3769   8.9008   8.9008
     9.5838   9.9855  10.4715  10.4715  13.5861  13.6517  13.6517  16.4180

          k = 0.1500 0.1500 0.2500     band energies (ev):

   -44.6625 -21.2945 -21.2718 -21.2711 -13.6444  -5.7348  -4.9781  -4.9460
     1.1861   1.2152   1.7515   7.4323   8.0702   8.2583   8.6492   8.7005
     9.2787  10.0011  10.2685  10.3810  13.6826  14.0636  14.0878  16.4180

          k = 0.1500 0.1500 0.3500     band energies (ev):

   -44.6621 -21.3162 -21.2707 -21.2701 -13.6018  -5.7994  -4.9530  -4.8228
     1.1675   1.3169   1.7482   7.0390   7.7755   8.1417   8.2909   8.5968
     9.2979   9.9185  10.0720  10.2159  13.7372  14.5221  14.5571  16.4115

          k = 0.1500 0.1500 0.4500     band energies (ev):

   -44.6618 -21.3295 -21.2700 -21.2695 -13.5752  -5.8563  -4.9373  -4.7235
     1.1549   1.4719   1.6469   6.7598   7.6745   8.0347   8.0884   8.5399
     9.4177   9.8543   9.9460  10.0415  13.7685  14.8252  14.8484  16.4033

          k = 0.1500 0.2500 0.2500     band energies (ev):

   -44.6621 -21.2939 -21.2924 -21.2704 -13.6072  -5.6635  -4.9628  -4.9230
     1.1339   1.1496   1.8000   7.2030   7.8542   7.9969   8.4853   8.5873
     8.9566  10.1012  10.1316  10.4383  14.0926  14.1773  14.3508  16.7686

          k = 0.1500 0.2500 0.3500     band energies (ev):

   -44.6616 -21.3147 -21.2919 -21.2694 -13.5697  -5.6491  -4.9279  -4.8537
     1.0734   1.1904   1.7348   6.9545   7.5095   7.8070   8.2635   8.5095
     8.9924   9.9343  10.1128  10.4638  14.1875  14.5892  14.7075  16.8389

          k = 0.1500 0.2500 0.4500     band energies (ev):

   -44.6613 -21.3279 -21.2911 -21.2688 -13.5460  -5.6671  -4.9011  -4.7841
     1.0311   1.2983   1.6099   6.7226   7.3728   7.7111   8.1024   8.4937
     9.0903   9.8899  10.0016  10.4421  14.2223  14.8749  14.9608  16.8473

          k = 0.1500 0.3500 0.3500     band energies (ev):

   -44.6612 -21.3137 -21.3128 -21.2685 -13.5370  -5.5177  -4.9205  -4.8418
     1.0655   1.0699   1.6296   6.8464   7.2972   7.3579   8.2734   8.3621
     8.9173   9.8904  10.2069  10.6722  14.6027  14.6701  14.9503  17.0002

          k = 0.1500 0.3500 0.4500     band energies (ev):

   -44.6609 -21.3263 -21.3123 -21.2679 -13.5166  -5.4586  -4.8874  -4.8372
     0.9933   1.1247   1.5039   6.6671   7.1676   7.2230   8.1630   8.3632
     8.8750  10.0120  10.1662  10.7551  14.6641  14.9170  15.1452  17.0366

          k = 0.1500 0.4500 0.4500     band energies (ev):

   -44.6606 -21.3254 -21.3253 -21.2673 -13.4979  -5.3132  -4.8934  -4.8695
     1.0219   1.0247   1.3882   6.5513   6.9591   7.1155   8.2217   8.2389
     8.7197  10.1900  10.2577  10.8966  14.9351  14.9459  15.2988  17.0785

          k = 0.2500 0.2500 0.2500     band energies (ev):

   -44.6616 -21.2932 -21.2914 -21.2914 -13.5738  -5.5502  -4.9216  -4.9216
     1.0117   1.0117   1.7912   7.0634   7.8163   7.8163   8.3582   8.5169
     8.5169  10.2706  10.2706  10.3347  14.4343  14.4343  14.4424  17.5835

          k = 0.2500 0.2500 0.3500     band energies (ev):

   -44.6612 -21.3134 -21.2912 -21.2903 -13.5396  -5.4853  -4.8792  -4.8658
     0.8892   0.9967   1.6453   6.9280   7.4622   7.7896   8.0244   8.5026
     8.6052  10.1157  10.3701  10.4208  14.5178  14.7649  14.8096  17.5621

          k = 0.2500 0.2500 0.4500     band energies (ev):

   -44.6609 -21.3265 -21.2905 -21.2897 -13.5179  -5.4746  -4.8523  -4.7980
     0.8132   1.0718   1.4670   6.7098   7.4311   7.7689   7.7800   8.5121
     8.7278  10.0191  10.3806  10.4340  14.5640  15.0120  15.0504  17.5422

          k = 0.2500 0.3500 0.3500     band energies (ev):

   -44.6607 -21.3124 -21.3116 -21.2897 -13.5085  -5.3353  -4.8626  -4.8253
     0.7906   0.8464   1.4345   6.8768   7.2906   7.5527   7.9547   8.4578
     8.5770  10.1902  10.3982  10.6409  14.8578  14.8786  15.0427  17.8511

          k = 0.2500 0.3500 0.4500     band energies (ev):

   -44.6604 -21.3250 -21.3112 -21.2890 -13.4891  -5.2626  -4.8259  -4.8029
     0.7049   0.8627   1.2262   6.6720   7.2061   7.5747   7.8482   8.4907
     8.5856  10.2264  10.4146  10.7475  14.9180  15.1040  15.2339  17.8655

          k = 0.2500 0.4500 0.4500     band energies (ev):

   -44.6602 -21.3242 -21.3241 -21.2884 -13.4712  -5.1127  -4.8249  -4.8063
     0.7146   0.7493   0.9996   6.5537   6.9635   7.6839   7.8860   8.4424
     8.4924  10.3959  10.4492  10.9120  15.1478  15.1530  15.3901  17.8682

          k = 0.3500 0.3500 0.3500     band energies (ev):

   -44.6603 -21.3114 -21.3105 -21.3105 -13.4796  -5.1535  -4.8019  -4.8019
     0.6342   0.6342   1.1459   6.8438   7.2890   7.2890   7.9140   8.5345
     8.5345  10.4891  10.4891  10.7102  15.1278  15.1278  15.1473  18.5534

          k = 0.3500 0.3500 0.4500     band energies (ev):

   -44.6600 -21.3238 -21.3103 -21.3098 -13.4614  -5.0501  -4.7749  -4.7629
     0.5058   0.6205   0.9002   6.6370   7.1730   7.2896   7.9834   8.5747
     8.5786  10.4968  10.6556  10.7991  15.1927  15.3162  15.3310  18.4172

          k = 0.3500 0.4500 0.4500     band energies (ev):

   -44.6597 -21.3230 -21.3229 -21.3093 -13.4446  -4.9002  -4.7524  -4.7415
     0.4501   0.4867   0.6410   6.5131   6.9684   7.2537   8.2141   8.5773
     8.5948  10.6896  10.7178  10.9311  15.3808  15.3811  15.4840  18.2224

          k = 0.4500 0.4500 0.4500     band energies (ev):

   -44.6594 -21.3223 -21.3222 -21.3222 -13.4277  -4.7571  -4.7053  -4.7053
     0.3295   0.3295   0.4035   6.4055   6.9718   6.9718   8.5196   8.6315
     8.6315  10.9109  10.9109  10.9573  15.5434  15.5434  15.5439  18.1679

     highest occupied, lowest unoccupied level (ev):    10.9573   12.9233

!    total energy              =    -264.78002105 Ry
     Harris-Foulkes estimate   =    -264.78002116 Ry
     estimated scf accuracy    <       0.00000035 Ry

     The total energy is the sum of the following terms:

     one-electron contribution =     -68.19417069 Ry
     hartree contribution      =      58.13343739 Ry
     xc contribution           =     -42.80349607 Ry
     ewald contribution        =    -211.91466263 Ry
     scf correction            =      -0.00112905 Ry

     iteration # 31     ecut=    50.00 Ry     beta=0.60
     Davidson diagonalization with overlap
     ethr =  8.74E-10,  avg # of iterations =  3.6

     negative rho (up, down):  6.322E-07 0.000E+00

     total cpu time spent up to now is       16.6 secs

     total energy              =    -264.78002135 Ry
     Harris-Foulkes estimate   =    -264.78002137 Ry
     estimated scf accuracy    <       0.00000007 Ry

     iteration # 32     ecut=    50.00 Ry     beta=0.60
     Davidson diagonalization with overlap
     ethr =  1.76E-10,  avg # of iterations =  2.7

     negative rho (up, down):  6.322E-07 0.000E+00

     total cpu time spent up to now is       17.0 secs

     total energy              =    -264.78002136 Ry
     Harris-Foulkes estimate   =    -264.78002136 Ry
     estimated scf accuracy    <          6.1E-09 Ry

     iteration # 33     ecut=    50.00 Ry     beta=0.60
     Davidson diagonalization with overlap
     ethr =  1.53E-11,  avg # of iterations =  3.4

     negative rho (up, down):  6.322E-07 0.000E+00

     total cpu time spent up to now is       17.5 secs

     total energy              =    -264.78002136 Ry
     Harris-Foulkes estimate   =    -264.78002136 Ry
     estimated scf accuracy    <          5.1E-10 Ry

     iteration # 34     ecut=    50.00 Ry     beta=0.60
     Davidson diagonalization with overlap
     ethr =  1.28E-12,  avg # of iterations =  3.0

     negative rho (up, down):  6.322E-07 0.000E+00

     total cpu time spent up to now is       18.0 secs

     total energy              =    -264.78002136 Ry
     Harris-Foulkes estimate   =    -264.78002136 Ry
     estimated scf accuracy    <          1.5E-10 Ry

     iteration # 35     ecut=    50.00 Ry     beta=0.60
     Davidson diagonalization with overlap
     ethr =  3.75E-13,  avg # of iterations =  2.8

     negative rho (up, down):  6.322E-07 0.000E+00

     total cpu time spent up to now is       18.4 secs

     total energy              =    -264.78002136 Ry
     Harris-Foulkes estimate   =    -264.78002136 Ry
     estimated scf accuracy    <          1.7E-11 Ry

     iteration # 36     ecut=    50.00 Ry     beta=0.60
     Davidson diagonalization with overlap
     ethr =  1.00E-13,  avg # of iterations =  1.9

     negative rho (up, down):  6.322E-07 0.000E+00

     total cpu time spent up to now is       18.8 secs

     total energy              =    -264.78002136 Ry
     Harris-Foulkes estimate   =    -264.78002136 Ry
     estimated scf accuracy    <          3.8E-12 Ry

     iteration # 37     ecut=    50.00 Ry     beta=0.60
     Davidson diagonalization with overlap
     ethr =  1.00E-13,  avg # of iterations =  1.0

     negative rho (up, down):  6.322E-07 0.000E+00

     total cpu time spent up to now is       19.1 secs

     End of self-consistent calculation

          k = 0.0500 0.0500 0.0500 (  2436 PWs)   bands (ev):

   -44.6653 -21.2617 -21.2614 -21.2614 -13.7688  -5.7306  -5.0348  -5.0348
     1.2113   1.2113   1.2696   8.6180   8.7037   8.7037   9.6015   9.6015
     9.7824  10.7336  10.8612  10.8612  12.9223  12.9511  12.9511  15.5642

          k = 0.0500 0.0500 0.1500 (  2438 PWs)   bands (ev):

   -44.6650 -21.2753 -21.2610 -21.2609 -13.7397  -5.7583  -5.0257  -5.0074
     1.2356   1.2435   1.3889   8.2758   8.6051   8.6261   9.2989   9.3878
     9.7126  10.2881  10.7042  10.7120  12.9673  13.3482  13.3512  15.5742

          k = 0.0500 0.0500 0.2500 (  2425 PWs)   bands (ev):

   -44.6646 -21.2975 -21.2600 -21.2599 -13.6914  -5.8553  -5.0110  -4.8989
     1.2971   1.3073   1.5478   7.7168   8.4182   8.4482   9.0280   9.0971
     9.5131   9.7847  10.5001  10.5137  13.0165  13.9287  13.9330  15.5809

          k = 0.0500 0.0500 0.3500 (  2415 PWs)   bands (ev):

   -44.6641 -21.3194 -21.2591 -21.2590 -13.6421  -5.9864  -4.9961  -4.7411
     1.3523   1.3922   1.6922   7.1673   8.2030   8.2304   8.7849   8.8462
     9.3336   9.5134  10.3098  10.3437  13.0667  14.4623  14.4666  15.5838

          k = 0.0500 0.0500 0.4500 (  2417 PWs)   bands (ev):

   -44.6638 -21.3329 -21.2585 -21.2584 -13.6113  -6.0750  -4.9868  -4.6281
     1.3874   1.4495   1.7758   6.8326   8.0727   8.0923   8.5647   8.7408
     9.2444   9.4299  10.1938  10.2486  13.0987  14.7818  14.7835  15.5841

          k = 0.0500 0.1500 0.1500 (  2423 PWs)   bands (ev):

   -44.6647 -21.2752 -21.2741 -21.2603 -13.7122  -5.7525  -5.0172  -4.9985
     1.2116   1.2701   1.5101   8.0371   8.4314   8.5634   8.9739   9.1777
     9.8301   9.9446  10.5373  10.6048  13.3145  13.4291  13.5907  15.8427

          k = 0.0500 0.1500 0.2500 (  2416 PWs)   bands (ev):

   -44.6643 -21.2967 -21.2735 -21.2594 -13.6674  -5.7995  -4.9975  -4.9234
     1.2370   1.3269   1.6230   7.5869   8.2004   8.3986   8.6332   8.9366
     9.5642   9.8114  10.3091  10.4714  13.4027  13.9537  14.0319  15.9247

          k = 0.0500 0.1500 0.3500 (  2416 PWs)   bands (ev):

   -44.6638 -21.3185 -21.2724 -21.2585 -13.6218  -5.8943  -4.9762  -4.7887
     1.2860   1.4115   1.6783   7.1023   8.0019   8.1787   8.3029   8.7891
     9.3969   9.7703  10.1140  10.2742  13.4477  14.4750  14.5060  15.9429

          k = 0.0500 0.1500 0.4500 (  2424 PWs)   bands (ev):

   -44.6635 -21.3319 -21.2717 -21.2579 -13.5934  -5.9659  -4.9632  -4.6852
     1.3176   1.5009   1.6708   6.7910   7.9069   8.0373   8.0927   8.7201
     9.3307   9.8261  10.0047  10.0701  13.4747  14.7886  14.8097  15.9455

          k = 0.0500 0.2500 0.2500 (  2419 PWs)   bands (ev):

   -44.6638 -21.2961 -21.2945 -21.2585 -13.6284  -5.7467  -4.9868  -4.9067
     1.2088   1.3659   1.6635   7.3411   7.8809   8.0829   8.4338   8.6859
     9.3591   9.9292  10.0464  10.5441  13.8966  14.0488  14.2936  16.1631

          k = 0.0500 0.2500 0.3500 (  2421 PWs)   bands (ev):

   -44.6634 -21.3169 -21.2940 -21.2576 -13.5886  -5.7508  -4.9583  -4.8404
     1.2263   1.4140   1.6459   7.0016   7.5698   7.7679   8.2444   8.5495
     9.3840   9.8170   9.9457  10.5377  13.9926  14.4965  14.6509  16.2489

          k = 0.0500 0.2500 0.4500 (  2420 PWs)   bands (ev):

   -44.6631 -21.3302 -21.2932 -21.2570 -13.5636  -5.7790  -4.9330  -4.7756
     1.2540   1.4662   1.5949   6.7367   7.3512   7.6791   8.0834   8.5187
     9.5255   9.6619   9.8925  10.4887  14.0157  14.7997  14.9115  16.2741

          k = 0.0500 0.3500 0.3500 (  2419 PWs)   bands (ev):

   -44.6629 -21.3159 -21.3149 -21.2567 -13.5547  -5.6273  -4.9543  -4.8506
     1.2049   1.3738   1.6311   6.8421   7.2267   7.3054   8.2145   8.2916
     9.4470   9.7005  10.0731  10.7124  14.4600  14.5523  14.8925  16.3853

          k = 0.0500 0.3500 0.4500 (  2426 PWs)   bands (ev):

   -44.6626 -21.3285 -21.3144 -21.2561 -13.5337  -5.5733  -4.9247  -4.8574
     1.2152   1.3206   1.6342   6.6612   6.9436   7.1953   8.0780   8.2489
     9.3824   9.8755  10.0593  10.7710  14.5154  14.8108  15.0905  16.4299

          k = 0.0500 0.4500 0.4500 (  2427 PWs)   bands (ev):

   -44.6624 -21.3275 -21.3274 -21.2556 -13.5148  -5.4313  -4.9331  -4.9064
     1.2032   1.2297   1.6621   6.5432   6.7232   6.9569   8.0713   8.0778
     9.2559  10.1051  10.1760  10.8901  14.8099  14.8229  15.2429  16.4807

          k = 0.1500 0.1500 0.1500 (  2415 PWs)   bands (ev):

   -44.6644 -21.2749 -21.2735 -21.2735 -13.6865  -5.7246  -5.0020  -5.0020
     1.2024   1.2024   1.6525   7.8021   8.3773   8.3773   8.9015   8.9015
     9.5845   9.9866  10.4723  10.4723  13.5852  13.6509  13.6509  16.4171

          k = 0.1500 0.1500 0.2500 (  2418 PWs)   bands (ev):

   -44.6640 -21.2959 -21.2733 -21.2725 -13.6448  -5.7340  -4.9772  -4.9451
     1.1858   1.2150   1.7513   7.4328   8.0705   8.2587   8.6499   8.7011
     9.2794  10.0021  10.2693  10.3819  13.6818  14.0628  14.0870  16.4171

          k = 0.1500 0.1500 0.3500 (  2418 PWs)   bands (ev):

   -44.6635 -21.3176 -21.2721 -21.2715 -13.6022  -5.7986  -4.9521  -4.8219
     1.1672   1.3167   1.7480   7.0393   7.7759   8.1422   8.2915   8.5974
     9.2985   9.9195  10.0728  10.2168  13.7363  14.5214  14.5563  16.4106

          k = 0.1500 0.1500 0.4500 (  2424 PWs)   bands (ev):

   -44.6633 -21.3309 -21.2714 -21.2709 -13.5757  -5.8555  -4.9363  -4.7226
     1.1546   1.4717   1.6467   6.7600   7.6751   8.0352   8.0889   8.5405
     9.4183   9.8553   9.9468  10.0425  13.7676  14.8245  14.8476  16.4024

          k = 0.1500 0.2500 0.2500 (  2414 PWs)   bands (ev):

   -44.6635 -21.2953 -21.2938 -21.2719 -13.6076  -5.6627  -4.9619  -4.9221
     1.1337   1.1494   1.7998   7.2035   7.8544   7.9974   8.4858   8.5879
     8.9572  10.1020  10.1327  10.4392  14.0918  14.1765  14.3500  16.7678

          k = 0.1500 0.2500 0.3500 (  2421 PWs)   bands (ev):

   -44.6631 -21.3161 -21.2933 -21.2708 -13.5701  -5.6483  -4.9270  -4.8528
     1.0732   1.1902   1.7345   6.9549   7.5098   7.8073   8.2640   8.5100
     8.9930   9.9351  10.1138  10.4648  14.1867  14.5884  14.7067  16.8380

          k = 0.1500 0.2500 0.4500 (  2420 PWs)   bands (ev):

   -44.6628 -21.3293 -21.2925 -21.2702 -13.5465  -5.6663  -4.9002  -4.7833
     1.0309   1.2982   1.6096   6.7228   7.3733   7.7113   8.1029   8.4942
     9.0908   9.8908  10.0026  10.4431  14.2215  14.8741  14.9600  16.8464

          k = 0.1500 0.3500 0.3500 (  2421 PWs)   bands (ev):

   -44.6626 -21.3151 -21.3142 -21.2699 -13.5374  -5.5168  -4.9197  -4.8409
     1.0654   1.0697   1.6294   6.8468   7.2973   7.3584   8.2738   8.3627
     8.9178   9.8913  10.2079  10.6733  14.6019  14.6693  14.9494  16.9993

          k = 0.1500 0.3500 0.4500 (  2423 PWs)   bands (ev):

   -44.6624 -21.3277 -21.3137 -21.2693 -13.5170  -5.4577  -4.8865  -4.8363
     0.9932   1.1246   1.5037   6.6674   7.1679   7.2233   8.1635   8.3637
     8.8755  10.0129  10.1672  10.7562  14.6633  14.9162  15.1443  17.0358

          k = 0.1500 0.4500 0.4500 (  2416 PWs)   bands (ev):

   -44.6621 -21.3268 -21.3267 -21.2687 -13.4983  -5.3123  -4.8925  -4.8686
     1.0218   1.0246   1.3880   6.5516   6.9592   7.1159   8.2221   8.2394
     8.7201  10.1910  10.2586  10.8977  14.9344  14.9451  15.2979  17.0776

          k = 0.2500 0.2500 0.2500 (  2425 PWs)   bands (ev):

   -44.6631 -21.2946 -21.2928 -21.2928 -13.5742  -5.5494  -4.9207  -4.9207
     1.0116   1.0116   1.7910   7.0639   7.8165   7.8165   8.3587   8.5175
     8.5175  10.2715  10.2715  10.3358  14.4335  14.4335  14.4415  17.5827

          k = 0.2500 0.2500 0.3500 (  2428 PWs)   bands (ev):

   -44.6626 -21.3148 -21.2927 -21.2917 -13.5400  -5.4844  -4.8783  -4.8649
     0.8890   0.9966   1.6450   6.9284   7.4625   7.7898   8.0248   8.5031
     8.6057  10.1167  10.3711  10.4219  14.5170  14.7641  14.8088  17.5613

          k = 0.2500 0.2500 0.4500 (  2420 PWs)   bands (ev):

   -44.6624 -21.3279 -21.2919 -21.2911 -13.5183  -5.4737  -4.8514  -4.7971
     0.8131   1.0716   1.4668   6.7100   7.4316   7.7692   7.7802   8.5126
     8.7283  10.0201  10.3817  10.4351  14.5632  15.0112  15.0496  17.5414

          k = 0.2500 0.3500 0.3500 (  2416 PWs)   bands (ev):

   -44.6622 -21.3138 -21.3130 -21.2911 -13.5089  -5.3345  -4.8617  -4.8244
     0.7904   0.8462   1.4343   6.8771   7.2907   7.5531   7.9550   8.4583
     8.5774  10.1912  10.3992  10.6420  14.8570  14.8778  15.0418  17.8504

          k = 0.2500 0.3500 0.4500 (  2409 PWs)   bands (ev):

   -44.6619 -21.3264 -21.3126 -21.2904 -13.4895  -5.2617  -4.8251  -4.8020
     0.7048   0.8626   1.2260   6.6723   7.2062   7.5752   7.8485   8.4911
     8.5860  10.2274  10.4156  10.7487  14.9173  15.1032  15.2330  17.8647

          k = 0.2500 0.4500 0.4500 (  2410 PWs)   bands (ev):

   -44.6616 -21.3256 -21.3255 -21.2898 -13.4717  -5.1118  -4.8240  -4.8055
     0.7145   0.7492   0.9995   6.5540   6.9636   7.6844   7.8862   8.4428
     8.4928  10.3970  10.4502  10.9131  15.1470  15.1522  15.3892  17.8675

          k = 0.3500 0.3500 0.3500 (  2413 PWs)   bands (ev):

   -44.6617 -21.3128 -21.3119 -21.3119 -13.4801  -5.1527  -4.8010  -4.8010
     0.6340   0.6340   1.1458   6.8441   7.2891   7.2891   7.9144   8.5349
     8.5349  10.4902  10.4902  10.7114  15.1271  15.1271  15.1465  18.5526

          k = 0.3500 0.3500 0.4500 (  2404 PWs)   bands (ev):

   -44.6614 -21.3252 -21.3117 -21.3112 -13.4619  -5.0493  -4.7740  -4.7620
     0.5057   0.6204   0.9000   6.6373   7.1732   7.2897   7.9838   8.5751
     8.5790  10.4979  10.6567  10.8002  15.1919  15.3154  15.3302  18.4168

          k = 0.3500 0.4500 0.4500 (  2418 PWs)   bands (ev):

   -44.6612 -21.3244 -21.3243 -21.3107 -13.4451  -4.8993  -4.7515  -4.7406
     0.4499   0.4866   0.6408   6.5134   6.9685   7.2539   8.2145   8.5777
     8.5952  10.6907  10.7189  10.9323  15.3800  15.3804  15.4832  18.2223

          k = 0.4500 0.4500 0.4500 (  2410 PWs)   bands (ev):

   -44.6609 -21.3237 -21.3236 -21.3236 -13.4281  -4.7562  -4.7044  -4.7044
     0.3293   0.3293   0.4033   6.4058   6.9718   6.9718   8.5199   8.6319
     8.6319  10.9120  10.9120  10.9585  15.5426  15.5426  15.5431  18.1680

     highest occupied, lowest unoccupied level (ev):    10.9585   12.9223

!    total energy              =    -264.78002136 Ry
     Harris-Foulkes estimate   =    -264.78002136 Ry
     estimated scf accuracy    <          2.0E-14 Ry

     The total energy is the sum of the following terms:

     one-electron contribution =     -68.19493079 Ry
     hartree contribution      =      58.13302463 Ry
     xc contribution           =     -42.80345257 Ry
     ewald contribution        =    -211.91466263 Ry

     convergence has been achieved in  37 iterations

     Forces acting on atoms (cartesian axes, Ry/au):

     atom    1 type  3   force =     0.00000000    0.00000000    0.00000000
     atom    2 type  2   force =     0.00000000    0.00000000    0.00000000
     atom    3 type  1   force =     0.00000000    0.00000000    0.00000000
     atom    4 type  1   force =     0.00000000    0.00000000    0.00000000
     atom    5 type  1   force =     0.00000000    0.00000000   -0.00000000

     Total force =     0.000000     Total SCF correction =     0.000000


     Computing stress (Cartesian axis) and pressure

          total   stress  (Ry/bohr**3)                   (kbar)     P=   17.91
   0.00012178   0.00000000   0.00000000         17.91      0.00      0.00
   0.00000000   0.00012178   0.00000000          0.00     17.91      0.00
   0.00000000   0.00000000   0.00012178          0.00      0.00     17.91


     Writing output data file bto.save
 
     init_run     :      0.19s CPU      0.52s WALL (       1 calls)
     electrons    :     17.46s CPU     17.96s WALL (       1 calls)
     forces       :      0.05s CPU      0.06s WALL (       1 calls)
     stress       :      0.10s CPU      0.11s WALL (       1 calls)

     Called by init_run:
     wfcinit      :      0.10s CPU      0.21s WALL (       1 calls)
     potinit      :      0.02s CPU      0.03s WALL (       1 calls)

     Called by electrons:
     c_bands      :     15.19s CPU     15.57s WALL (      37 calls)
     sum_band     :      1.97s CPU      2.05s WALL (      37 calls)
     v_of_rho     :      0.02s CPU      0.03s WALL (      38 calls)
     newd         :      0.23s CPU      0.24s WALL (      38 calls)
     mix_rho      :      0.03s CPU      0.04s WALL (      37 calls)

     Called by c_bands:
     init_us_2    :      0.08s CPU      0.13s WALL (    2695 calls)
     cegterg      :     14.45s CPU     14.84s WALL (    1295 calls)

     Called by sum_band:
     sum_band:bec :      0.00s CPU      0.02s WALL (    1295 calls)
     addusdens    :      0.26s CPU      0.27s WALL (      37 calls)

     Called by *egterg:
     h_psi        :      7.81s CPU      8.21s WALL (    4935 calls)
     s_psi        :      0.18s CPU      0.17s WALL (    4935 calls)
     g_psi        :      0.01s CPU      0.03s WALL (    3605 calls)
     cdiaghg      :      4.66s CPU      4.64s WALL (    4900 calls)

     Called by h_psi:
     h_psi:pot    :      7.80s CPU      8.19s WALL (    4935 calls)
     h_psi:calbec :      0.50s CPU      0.45s WALL (    4935 calls)
     vloc_psi     :      7.15s CPU      7.53s WALL (    4935 calls)
     add_vuspsi   :      0.14s CPU      0.19s WALL (    4935 calls)

     General routines
     calbec       :      0.69s CPU      0.62s WALL (    6405 calls)
     fft          :      0.04s CPU      0.15s WALL (     343 calls)
     ffts         :      0.01s CPU      0.01s WALL (      75 calls)
     fftw         :      7.94s CPU      8.28s WALL (  195624 calls)
     interpolate  :      0.02s CPU      0.02s WALL (      75 calls)
     davcio       :      0.00s CPU      0.05s WALL (      35 calls)
 
     Parallel routines
     fft_scatter  :      4.56s CPU      4.74s WALL (  196042 calls)
 
     PWSCF        :    18.03s CPU        19.61s WALL

 
   This run was terminated on:   0:12:56  31Dec2017            

=------------------------------------------------------------------------------=
   JOB DONE.
=------------------------------------------------------------------------------=
