
     Program PWSCF v.6.1 (svn rev. 13369) starts on 31Dec2017 at  0:12:58 

     This program is part of the open-source Quantum ESPRESSO suite
     for quantum simulation of materials; please cite
         "P. Giannozzi et al., J. Phys.:Condens. Matter 21 395502 (2009);
          URL http://www.quantum-espresso.org", 
     in publications or presentations arising from this work. More details at
     http://www.quantum-espresso.org/quote

     Parallel version (MPI), running on    28 processors
     R & G space division:  proc/nbgrp/npool/nimage =      28
     Waiting for input...
     Reading input from standard input

     Current dimensions of program PWSCF are:
     Max number of different atomic species (ntypx) = 10
     Max number of k-points (npk) =  40000
     Max angular momentum in pseudopotentials (lmaxx) =  3

     Subspace diagonalization in iterative solution of the eigenvalue problem:
     a serial algorithm will be used

 
     Parallelization info
     --------------------
     sticks:   dense  smooth     PW     G-vecs:    dense   smooth      PW
     Min          62      31      8                 1956      691      98
     Max          63      32      9                 1961      694     103
     Sum        1749     877    241                54795    19381    2801
 

     Title: 
     cubic BaTiO3 at 7.40 lattice parameter. xc=PZ                              


     bravais-lattice index     =            1
     lattice parameter (alat)  =       7.4000  a.u.
     unit-cell volume          =     405.2240 (a.u.)^3
     number of atoms/cell      =            5
     number of atomic types    =            3
     number of electrons       =        40.00
     number of Kohn-Sham states=           24
     kinetic-energy cutoff     =      50.0000  Ry
     charge density cutoff     =     400.0000  Ry
     convergence threshold     =      1.0E-12
     mixing beta               =       0.6000
     number of iterations used =            8  plain     mixing
     Exchange-correlation      = SLA-PZ-NOGX-NOGC ( 1  1  0  0 0 0)

     celldm(1)=   7.400000  celldm(2)=   0.000000  celldm(3)=   0.000000
     celldm(4)=   0.000000  celldm(5)=   0.000000  celldm(6)=   0.000000

     crystal axes: (cart. coord. in units of alat)
               a(1) = (   1.000000   0.000000   0.000000 )  
               a(2) = (   0.000000   1.000000   0.000000 )  
               a(3) = (   0.000000   0.000000   1.000000 )  

     reciprocal axes: (cart. coord. in units 2 pi/alat)
               b(1) = (  1.000000  0.000000  0.000000 )  
               b(2) = (  0.000000  1.000000  0.000000 )  
               b(3) = (  0.000000  0.000000  1.000000 )  


     PseudoPot. # 1 for O  read from file:
     ../../PSP_DIR/O.pz-van_ak.UPF
     MD5 check sum: d814fcb982dd9af4fc6452aae6bb9318
     Pseudo is Ultrasoft, Zval =  6.0
     Generated by new atomic code, or converted to UPF format
     Using radial grid of  737 points,  4 beta functions with: 
                l(1) =   0
                l(2) =   0
                l(3) =   1
                l(4) =   1
     Q(r) pseudized with  8 coefficients,  rinner =    0.800   0.800   0.800


     PseudoPot. # 2 for Ti read from file:
     ../../PSP_DIR/Ti.pz-sp-van_ak.UPF
     MD5 check sum: 545d0e6e05332b8871a8093f427cb0ca
     Pseudo is Ultrasoft, Zval = 12.0
     Generated by new atomic code, or converted to UPF format
     Using radial grid of  851 points,  6 beta functions with: 
                l(1) =   0
                l(2) =   0
                l(3) =   1
                l(4) =   1
                l(5) =   2
                l(6) =   2
     Q(r) pseudized with  8 coefficients,  rinner =    1.000   1.000   1.000
                                                       1.000   1.000

     PseudoPot. # 3 for Ba read from file:
     ../../PSP_DIR/Ba.pz-sp-hgh.UPF
     MD5 check sum: 155c4e4bbe33bd45901c985a874b3acf
     Pseudo is Norm-conserving, Zval = 10.0
     Generated in analytical, separable form
     Using radial grid of 1251 points,  6 beta functions with: 
                l(1) =   0
                l(2) =   0
                l(3) =   1
                l(4) =   1
                l(5) =   2
                l(6) =   3

     atomic species   valence    mass     pseudopotential
        O              6.00    15.99000     O ( 1.00)
        Ti            12.00    47.88000     Ti( 1.00)
        Ba            10.00   137.33000     Ba( 1.00)

     48 Sym. Ops., with inversion, found



   Cartesian axes

     site n.     atom                  positions (alat units)
         1           Ba  tau(   1) = (   0.0000000   0.0000000   0.0000000  )
         2           Ti  tau(   2) = (   0.5000000   0.5000000   0.5000000  )
         3           O   tau(   3) = (   0.0000000   0.5000000   0.5000000  )
         4           O   tau(   4) = (   0.5000000   0.0000000   0.5000000  )
         5           O   tau(   5) = (   0.5000000   0.5000000   0.0000000  )

     number of k points=     1
                       cart. coord. in units 2pi/alat
        k(    1) = (   0.2500000   0.2500000   0.2500000), wk =   2.0000000

     Dense  grid:    54795 G-vectors     FFT dimensions: (  48,  48,  48)

     Smooth grid:    19381 G-vectors     FFT dimensions: (  36,  36,  36)

     Estimated max dynamical RAM per process >       1.88MB

     Estimated total allocated dynamical RAM >      52.67MB

     Initial potential from superposition of free atoms

     starting charge   28.99996, renormalised to   40.00000
     Starting wfc are   22 randomized atomic wfcs +    2 random wfc

     total cpu time spent up to now is        0.3 secs

     per-process dynamical memory:    31.8 Mb

     Self-consistent Calculation

     iteration #  1     ecut=    50.00 Ry     beta=0.60
     Davidson diagonalization with overlap
     ethr =  1.00E-02,  avg # of iterations = 11.0

     total cpu time spent up to now is        0.3 secs

     total energy              =      31.69644510 Ry
     Harris-Foulkes estimate   =    -365.35136405 Ry
     estimated scf accuracy    <     525.35202647 Ry

     iteration #  2     ecut=    50.00 Ry     beta=0.60
     Davidson diagonalization with overlap
     ethr =  1.00E-02,  avg # of iterations =  8.0

     total cpu time spent up to now is        0.4 secs

     total energy              =    -278.23049521 Ry
     Harris-Foulkes estimate   =    -436.36607575 Ry
     estimated scf accuracy    <     295.82165028 Ry

     iteration #  3     ecut=    50.00 Ry     beta=0.60
     Davidson diagonalization with overlap
     ethr =  1.00E-02,  avg # of iterations =  3.0

     total cpu time spent up to now is        0.4 secs

     total energy              =    -270.92140121 Ry
     Harris-Foulkes estimate   =    -294.09538694 Ry
     estimated scf accuracy    <      77.20340361 Ry

     iteration #  4     ecut=    50.00 Ry     beta=0.60
     Davidson diagonalization with overlap
     ethr =  1.00E-02,  avg # of iterations =  4.0

     negative rho (up, down):  2.448E-07 0.000E+00

     total cpu time spent up to now is        0.5 secs

     total energy              =    -268.20295862 Ry
     Harris-Foulkes estimate   =    -273.32914215 Ry
     estimated scf accuracy    <      30.62437267 Ry

     iteration #  5     ecut=    50.00 Ry     beta=0.60
     Davidson diagonalization with overlap
     ethr =  1.00E-02,  avg # of iterations =  4.0

     total cpu time spent up to now is        0.5 secs

     total energy              =    -269.05678775 Ry
     Harris-Foulkes estimate   =    -269.03406155 Ry
     estimated scf accuracy    <      10.23717803 Ry

     iteration #  6     ecut=    50.00 Ry     beta=0.60
     Davidson diagonalization with overlap
     ethr =  1.00E-02,  avg # of iterations =  1.0

     negative rho (up, down):  3.393E-07 0.000E+00

     total cpu time spent up to now is        0.5 secs

     total energy              =    -268.86883986 Ry
     Harris-Foulkes estimate   =    -269.06844454 Ry
     estimated scf accuracy    <      10.38703682 Ry

     iteration #  7     ecut=    50.00 Ry     beta=0.60
     Davidson diagonalization with overlap
     ethr =  1.00E-02,  avg # of iterations =  1.0

     negative rho (up, down):  4.973E-07 0.000E+00

     total cpu time spent up to now is        0.5 secs

     total energy              =    -266.66500793 Ry
     Harris-Foulkes estimate   =    -269.12877858 Ry
     estimated scf accuracy    <      20.66043097 Ry

     iteration #  8     ecut=    50.00 Ry     beta=0.60
     Davidson diagonalization with overlap
     ethr =  1.00E-02,  avg # of iterations =  1.0

     negative rho (up, down):  7.533E-07 0.000E+00

     total cpu time spent up to now is        0.6 secs

     total energy              =    -266.76797099 Ry
     Harris-Foulkes estimate   =    -267.57481702 Ry
     estimated scf accuracy    <       6.76763427 Ry

     iteration #  9     ecut=    50.00 Ry     beta=0.60
     Davidson diagonalization with overlap
     ethr =  1.00E-02,  avg # of iterations =  1.0

     negative rho (up, down):  6.942E-07 0.000E+00

     total cpu time spent up to now is        0.6 secs

     total energy              =    -266.86837896 Ry
     Harris-Foulkes estimate   =    -266.82968654 Ry
     estimated scf accuracy    <       4.86117423 Ry

     iteration # 10     ecut=    50.00 Ry     beta=0.60
     Davidson diagonalization with overlap
     ethr =  1.00E-02,  avg # of iterations =  1.0

     negative rho (up, down):  3.199E-02 0.000E+00

     total cpu time spent up to now is        0.6 secs

          k = 0.2500 0.2500 0.2500     band energies (ev):

   -45.3073 -22.3734 -22.3719 -22.3717  -9.6814  -9.1073  -9.1065  -2.9334
     3.3986   3.4060   3.5513   4.0972   4.1100   4.9736   6.0825   6.0840
     6.4125   9.3665  11.0810  11.0811  12.7214  12.7224  12.8055  15.7021

     highest occupied, lowest unoccupied level (ev):    11.0811   12.7214

!    total energy              =    -263.38385992 Ry
     Harris-Foulkes estimate   =    -266.87629455 Ry
     estimated scf accuracy    <       4.83457409 Ry

     The total energy is the sum of the following terms:

     one-electron contribution =     -70.91268221 Ry
     hartree contribution      =      66.90512617 Ry
     xc contribution           =     -43.17286398 Ry
     ewald contribution        =    -211.91466263 Ry
     scf correction            =      -4.28877727 Ry

     iteration # 11     ecut=    50.00 Ry     beta=0.60
     Davidson diagonalization with overlap
     ethr =  1.00E-02,  avg # of iterations =  5.0

     negative rho (up, down):  7.430E-07 0.000E+00

     total cpu time spent up to now is        0.7 secs

     total energy              =    -256.06770918 Ry
     Harris-Foulkes estimate   =    -270.09962527 Ry
     estimated scf accuracy    <      36.77478006 Ry

     iteration # 12     ecut=    50.00 Ry     beta=0.60
     Davidson diagonalization with overlap
     ethr =  1.00E-02,  avg # of iterations =  4.0

     negative rho (up, down):  1.041E-06 0.000E+00

     total cpu time spent up to now is        0.7 secs

     total energy              =    -266.34534501 Ry
     Harris-Foulkes estimate   =    -267.14847750 Ry
     estimated scf accuracy    <      28.45426217 Ry

     iteration # 13     ecut=    50.00 Ry     beta=0.60
     Davidson diagonalization with overlap
     ethr =  1.00E-02,  avg # of iterations =  1.0

     negative rho (up, down):  3.693E-06 0.000E+00

     total cpu time spent up to now is        0.7 secs

     total energy              =    -264.68755542 Ry
     Harris-Foulkes estimate   =    -266.51986446 Ry
     estimated scf accuracy    <      24.24090812 Ry

     iteration # 14     ecut=    50.00 Ry     beta=0.60
     Davidson diagonalization with overlap
     ethr =  1.00E-02,  avg # of iterations =  3.0

     negative rho (up, down):  3.356E-06 0.000E+00

     total cpu time spent up to now is        0.7 secs

     total energy              =    -265.24985387 Ry
     Harris-Foulkes estimate   =    -265.35571313 Ry
     estimated scf accuracy    <       3.38408371 Ry

     iteration # 15     ecut=    50.00 Ry     beta=0.60
     Davidson diagonalization with overlap
     ethr =  8.46E-03,  avg # of iterations =  1.0

     negative rho (up, down):  3.922E-06 0.000E+00

     total cpu time spent up to now is        0.8 secs

     total energy              =    -265.33781832 Ry
     Harris-Foulkes estimate   =    -265.26853517 Ry
     estimated scf accuracy    <       2.30047347 Ry

     iteration # 16     ecut=    50.00 Ry     beta=0.60
     Davidson diagonalization with overlap
     ethr =  5.75E-03,  avg # of iterations =  1.0

     negative rho (up, down):  1.683E-06 0.000E+00

     total cpu time spent up to now is        0.8 secs

     total energy              =    -264.09940461 Ry
     Harris-Foulkes estimate   =    -265.34409497 Ry
     estimated scf accuracy    <       2.62498303 Ry

     iteration # 17     ecut=    50.00 Ry     beta=0.60
     Davidson diagonalization with overlap
     ethr =  5.75E-03,  avg # of iterations =  3.0

     negative rho (up, down):  6.213E-05 0.000E+00

     total cpu time spent up to now is        0.8 secs

     total energy              =    -264.85050102 Ry
     Harris-Foulkes estimate   =    -265.03402193 Ry
     estimated scf accuracy    <       0.77616039 Ry

     iteration # 18     ecut=    50.00 Ry     beta=0.60
     Davidson diagonalization with overlap
     ethr =  1.94E-03,  avg # of iterations =  2.0

     negative rho (up, down):  3.167E-07 0.000E+00

     total cpu time spent up to now is        0.8 secs

     total energy              =    -264.90678924 Ry
     Harris-Foulkes estimate   =    -264.89745158 Ry
     estimated scf accuracy    <       0.35094604 Ry

     iteration # 19     ecut=    50.00 Ry     beta=0.60
     Davidson diagonalization with overlap
     ethr =  8.77E-04,  avg # of iterations =  2.0

     negative rho (up, down):  3.072E-07 0.000E+00

     total cpu time spent up to now is        0.9 secs

     total energy              =    -264.92458117 Ry
     Harris-Foulkes estimate   =    -264.91887963 Ry
     estimated scf accuracy    <       0.40374863 Ry

     iteration # 20     ecut=    50.00 Ry     beta=0.60
     Davidson diagonalization with overlap
     ethr =  8.77E-04,  avg # of iterations =  1.0

     negative rho (up, down):  1.700E-06 0.000E+00

     total cpu time spent up to now is        0.9 secs

          k = 0.2500 0.2500 0.2500     band energies (ev):

   -41.9790 -18.9650 -18.9611 -18.9611 -12.6047  -6.0811  -5.5275  -5.5274
     1.6509   1.6510   2.5463   6.7113   7.5988   7.6010   7.9513   8.2714
     8.2715   9.6848   9.7658   9.7665  15.7940  15.7974  15.9144  19.2096

     highest occupied, lowest unoccupied level (ev):     9.7665   15.7940

!    total energy              =    -264.92512794 Ry
     Harris-Foulkes estimate   =    -264.92604962 Ry
     estimated scf accuracy    <       0.41684937 Ry

     The total energy is the sum of the following terms:

     one-electron contribution =     -66.86202733 Ry
     hartree contribution      =      60.30172577 Ry
     xc contribution           =     -43.16314427 Ry
     ewald contribution        =    -211.91466263 Ry
     scf correction            =      -3.28701947 Ry

     iteration # 21     ecut=    50.00 Ry     beta=0.60
     Davidson diagonalization with overlap
     ethr =  8.77E-04,  avg # of iterations =  1.0

     negative rho (up, down):  7.882E-07 0.000E+00

     total cpu time spent up to now is        0.9 secs

     total energy              =    -265.00906295 Ry
     Harris-Foulkes estimate   =    -264.92921362 Ry
     estimated scf accuracy    <       0.44043340 Ry

     iteration # 22     ecut=    50.00 Ry     beta=0.60
     Davidson diagonalization with overlap
     ethr =  8.77E-04,  avg # of iterations =  4.0

     negative rho (up, down):  1.392E-06 0.000E+00

     total cpu time spent up to now is        1.0 secs

     total energy              =    -264.90876006 Ry
     Harris-Foulkes estimate   =    -265.02720311 Ry
     estimated scf accuracy    <       0.66024028 Ry

     iteration # 23     ecut=    50.00 Ry     beta=0.60
     Davidson diagonalization with overlap
     ethr =  8.77E-04,  avg # of iterations =  2.0

     negative rho (up, down):  6.928E-07 0.000E+00

     total cpu time spent up to now is        1.0 secs

     total energy              =    -264.78301655 Ry
     Harris-Foulkes estimate   =    -264.93299964 Ry
     estimated scf accuracy    <       0.42477074 Ry

     iteration # 24     ecut=    50.00 Ry     beta=0.60
     Davidson diagonalization with overlap
     ethr =  8.77E-04,  avg # of iterations =  4.0

     negative rho (up, down):  8.103E-07 0.000E+00

     total cpu time spent up to now is        1.0 secs

     total energy              =    -264.78870878 Ry
     Harris-Foulkes estimate   =    -264.82304053 Ry
     estimated scf accuracy    <       0.06551643 Ry

     iteration # 25     ecut=    50.00 Ry     beta=0.60
     Davidson diagonalization with overlap
     ethr =  1.64E-04,  avg # of iterations =  6.0

     negative rho (up, down):  7.434E-07 0.000E+00

     total cpu time spent up to now is        1.0 secs

     total energy              =    -264.80634556 Ry
     Harris-Foulkes estimate   =    -264.80707673 Ry
     estimated scf accuracy    <       0.00220671 Ry

     iteration # 26     ecut=    50.00 Ry     beta=0.60
     Davidson diagonalization with overlap
     ethr =  5.52E-06,  avg # of iterations =  3.0

     negative rho (up, down):  5.617E-07 0.000E+00

     total cpu time spent up to now is        1.1 secs

     total energy              =    -264.80674567 Ry
     Harris-Foulkes estimate   =    -264.80677842 Ry
     estimated scf accuracy    <       0.00028199 Ry

     iteration # 27     ecut=    50.00 Ry     beta=0.60
     Davidson diagonalization with overlap
     ethr =  7.05E-07,  avg # of iterations =  4.0

     negative rho (up, down):  5.814E-07 0.000E+00

     total cpu time spent up to now is        1.1 secs

     total energy              =    -264.80655778 Ry
     Harris-Foulkes estimate   =    -264.80693211 Ry
     estimated scf accuracy    <       0.00075448 Ry

     iteration # 28     ecut=    50.00 Ry     beta=0.60
     Davidson diagonalization with overlap
     ethr =  7.05E-07,  avg # of iterations =  4.0

     negative rho (up, down):  5.649E-07 0.000E+00

     total cpu time spent up to now is        1.1 secs

     total energy              =    -264.80671468 Ry
     Harris-Foulkes estimate   =    -264.80671675 Ry
     estimated scf accuracy    <       0.00000586 Ry

     iteration # 29     ecut=    50.00 Ry     beta=0.60
     Davidson diagonalization with overlap
     ethr =  1.47E-08,  avg # of iterations =  4.0

     negative rho (up, down):  5.628E-07 0.000E+00

     total cpu time spent up to now is        1.2 secs

     total energy              =    -264.80671637 Ry
     Harris-Foulkes estimate   =    -264.80671641 Ry
     estimated scf accuracy    <       0.00000017 Ry

     iteration # 30     ecut=    50.00 Ry     beta=0.60
     Davidson diagonalization with overlap
     ethr =  4.18E-10,  avg # of iterations =  4.0

     negative rho (up, down):  5.639E-07 0.000E+00

     total cpu time spent up to now is        1.2 secs

          k = 0.2500 0.2500 0.2500     band energies (ev):

   -44.3953 -21.0428 -21.0408 -21.0408 -13.6401  -5.5262  -4.8936  -4.8936
     0.9597   0.9597   1.7333   7.0966   7.8753   7.8753   8.3953   8.5486
     8.5486  10.2956  10.2956  10.3570  14.6063  14.6063  14.6265  17.7745

     highest occupied, lowest unoccupied level (ev):    10.3570   14.6063

!    total energy              =    -264.80671646 Ry
     Harris-Foulkes estimate   =    -264.80671651 Ry
     estimated scf accuracy    <       0.00000010 Ry

     The total energy is the sum of the following terms:

     one-electron contribution =     -68.38471670 Ry
     hartree contribution      =      58.31456592 Ry
     xc contribution           =     -42.82242859 Ry
     ewald contribution        =    -211.91466263 Ry
     scf correction            =       0.00052554 Ry

     iteration # 31     ecut=    50.00 Ry     beta=0.60
     Davidson diagonalization with overlap
     ethr =  2.43E-10,  avg # of iterations =  3.0

     negative rho (up, down):  5.640E-07 0.000E+00

     total cpu time spent up to now is        1.2 secs

     total energy              =    -264.80671648 Ry
     Harris-Foulkes estimate   =    -264.80671651 Ry
     estimated scf accuracy    <       0.00000008 Ry

     iteration # 32     ecut=    50.00 Ry     beta=0.60
     Davidson diagonalization with overlap
     ethr =  1.90E-10,  avg # of iterations =  3.0

     negative rho (up, down):  5.639E-07 0.000E+00

     total cpu time spent up to now is        1.3 secs

     total energy              =    -264.80671650 Ry
     Harris-Foulkes estimate   =    -264.80671650 Ry
     estimated scf accuracy    <          9.3E-11 Ry

     iteration # 33     ecut=    50.00 Ry     beta=0.60
     Davidson diagonalization with overlap
     ethr =  2.33E-13,  avg # of iterations =  4.0

     negative rho (up, down):  5.639E-07 0.000E+00

     total cpu time spent up to now is        1.3 secs

     total energy              =    -264.80671650 Ry
     Harris-Foulkes estimate   =    -264.80671650 Ry
     estimated scf accuracy    <          2.2E-11 Ry

     iteration # 34     ecut=    50.00 Ry     beta=0.60
     Davidson diagonalization with overlap
     ethr =  1.00E-13,  avg # of iterations =  2.0

     negative rho (up, down):  5.638E-07 0.000E+00

     total cpu time spent up to now is        1.3 secs

     End of self-consistent calculation

          k = 0.2500 0.2500 0.2500 (  2425 PWs)   bands (ev):

   -44.3942 -21.0417 -21.0398 -21.0398 -13.6400  -5.5263  -4.8938  -4.8938
     0.9598   0.9598   1.7333   7.0965   7.8754   7.8754   8.3952   8.5486
     8.5486  10.2955  10.2955  10.3569  14.6069  14.6069  14.6272  17.7752

     highest occupied, lowest unoccupied level (ev):    10.3569   14.6069

!    total energy              =    -264.80671650 Ry
     Harris-Foulkes estimate   =    -264.80671650 Ry
     estimated scf accuracy    <          4.3E-13 Ry

     The total energy is the sum of the following terms:

     one-electron contribution =     -68.38361349 Ry
     hartree contribution      =      58.31391108 Ry
     xc contribution           =     -42.82235145 Ry
     ewald contribution        =    -211.91466263 Ry

     convergence has been achieved in  34 iterations

     Forces acting on atoms (cartesian axes, Ry/au):

     atom    1 type  3   force =     0.00000000    0.00000000    0.00000000
     atom    2 type  2   force =     0.00000000    0.00000000    0.00000000
     atom    3 type  1   force =     0.00000000    0.00000000    0.00000000
     atom    4 type  1   force =     0.00000000    0.00000000    0.00000000
     atom    5 type  1   force =     0.00000000    0.00000000    0.00000000

     Total force =     0.000000     Total SCF correction =     0.000000


     Computing stress (Cartesian axis) and pressure

          total   stress  (Ry/bohr**3)                   (kbar)     P=   11.35
   0.00007715   0.00000000   0.00000000         11.35      0.00      0.00
   0.00000000   0.00007715   0.00000000          0.00     11.35      0.00
   0.00000000   0.00000000   0.00007715          0.00      0.00     11.35


     Writing output data file bto.save
 
     init_run     :      0.07s CPU      0.09s WALL (       1 calls)
     electrons    :      1.03s CPU      1.06s WALL (       1 calls)
     forces       :      0.02s CPU      0.02s WALL (       1 calls)
     stress       :      0.05s CPU      0.05s WALL (       1 calls)

     Called by init_run:
     wfcinit      :      0.00s CPU      0.01s WALL (       1 calls)
     potinit      :      0.01s CPU      0.01s WALL (       1 calls)

     Called by electrons:
     c_bands      :      0.44s CPU      0.46s WALL (      34 calls)
     sum_band     :      0.32s CPU      0.32s WALL (      34 calls)
     v_of_rho     :      0.01s CPU      0.02s WALL (      35 calls)
     newd         :      0.22s CPU      0.22s WALL (      35 calls)
     mix_rho      :      0.03s CPU      0.03s WALL (      34 calls)

     Called by c_bands:
     init_us_2    :      0.00s CPU      0.00s WALL (      69 calls)
     cegterg      :      0.42s CPU      0.44s WALL (      34 calls)

     Called by sum_band:
     sum_band:bec :      0.00s CPU      0.00s WALL (      34 calls)
     addusdens    :      0.25s CPU      0.25s WALL (      34 calls)

     Called by *egterg:
     h_psi        :      0.22s CPU      0.23s WALL (     141 calls)
     s_psi        :      0.00s CPU      0.00s WALL (     141 calls)
     g_psi        :      0.00s CPU      0.00s WALL (     106 calls)
     cdiaghg      :      0.14s CPU      0.14s WALL (     140 calls)

     Called by h_psi:
     h_psi:pot    :      0.22s CPU      0.23s WALL (     141 calls)
     h_psi:calbec :      0.01s CPU      0.01s WALL (     141 calls)
     vloc_psi     :      0.20s CPU      0.21s WALL (     141 calls)
     add_vuspsi   :      0.01s CPU      0.01s WALL (     141 calls)

     General routines
     calbec       :      0.02s CPU      0.02s WALL (     180 calls)
     fft          :      0.03s CPU      0.04s WALL (     316 calls)
     ffts         :      0.01s CPU      0.01s WALL (      69 calls)
     fftw         :      0.22s CPU      0.23s WALL (    5484 calls)
     interpolate  :      0.02s CPU      0.02s WALL (      69 calls)
     davcio       :      0.00s CPU      0.00s WALL (       1 calls)
 
     Parallel routines
     fft_scatter  :      0.14s CPU      0.16s WALL (    5869 calls)
 
     PWSCF        :     1.33s CPU         1.48s WALL

 
   This run was terminated on:   0:12:59  31Dec2017            

=------------------------------------------------------------------------------=
   JOB DONE.
=------------------------------------------------------------------------------=
