
     Program PWSCF v.6.1 (svn rev. 13369) starts on 31Dec2017 at  0:13:14 

     This program is part of the open-source Quantum ESPRESSO suite
     for quantum simulation of materials; please cite
         "P. Giannozzi et al., J. Phys.:Condens. Matter 21 395502 (2009);
          URL http://www.quantum-espresso.org", 
     in publications or presentations arising from this work. More details at
     http://www.quantum-espresso.org/quote

     Parallel version (MPI), running on    28 processors
     R & G space division:  proc/nbgrp/npool/nimage =      28
     Waiting for input...
     Reading input from standard input

     Current dimensions of program PWSCF are:
     Max number of different atomic species (ntypx) = 10
     Max number of k-points (npk) =  40000
     Max angular momentum in pseudopotentials (lmaxx) =  3

     Subspace diagonalization in iterative solution of the eigenvalue problem:
     a serial algorithm will be used

 
     Parallelization info
     --------------------
     sticks:   dense  smooth     PW     G-vecs:    dense   smooth      PW
     Min          62      31      9                 1956      691     110
     Max          63      32     10                 1961      694     113
     Sum        1749     877    261                54795    19381    3119
 

     Title: 
     cubic BaTiO3 at 7.40 lattice parameter. xc=PZ                              


     bravais-lattice index     =            1
     lattice parameter (alat)  =       7.4000  a.u.
     unit-cell volume          =     405.2240 (a.u.)^3
     number of atoms/cell      =            5
     number of atomic types    =            3
     number of electrons       =        40.00
     number of Kohn-Sham states=           24
     kinetic-energy cutoff     =      50.0000  Ry
     charge density cutoff     =     400.0000  Ry
     convergence threshold     =      1.0E-12
     mixing beta               =       0.6000
     number of iterations used =            8  plain     mixing
     Exchange-correlation      = SLA-PZ-NOGX-NOGC ( 1  1  0  0 0 0)

     celldm(1)=   7.400000  celldm(2)=   0.000000  celldm(3)=   0.000000
     celldm(4)=   0.000000  celldm(5)=   0.000000  celldm(6)=   0.000000

     crystal axes: (cart. coord. in units of alat)
               a(1) = (   1.000000   0.000000   0.000000 )  
               a(2) = (   0.000000   1.000000   0.000000 )  
               a(3) = (   0.000000   0.000000   1.000000 )  

     reciprocal axes: (cart. coord. in units 2 pi/alat)
               b(1) = (  1.000000  0.000000  0.000000 )  
               b(2) = (  0.000000  1.000000  0.000000 )  
               b(3) = (  0.000000  0.000000  1.000000 )  


     PseudoPot. # 1 for O  read from file:
     ../../PSP_DIR/O.pz-van_ak.UPF
     MD5 check sum: d814fcb982dd9af4fc6452aae6bb9318
     Pseudo is Ultrasoft, Zval =  6.0
     Generated by new atomic code, or converted to UPF format
     Using radial grid of  737 points,  4 beta functions with: 
                l(1) =   0
                l(2) =   0
                l(3) =   1
                l(4) =   1
     Q(r) pseudized with  8 coefficients,  rinner =    0.800   0.800   0.800


     PseudoPot. # 2 for Ti read from file:
     ../../PSP_DIR/Ti.pz-sp-van_ak.UPF
     MD5 check sum: 545d0e6e05332b8871a8093f427cb0ca
     Pseudo is Ultrasoft, Zval = 12.0
     Generated by new atomic code, or converted to UPF format
     Using radial grid of  851 points,  6 beta functions with: 
                l(1) =   0
                l(2) =   0
                l(3) =   1
                l(4) =   1
                l(5) =   2
                l(6) =   2
     Q(r) pseudized with  8 coefficients,  rinner =    1.000   1.000   1.000
                                                       1.000   1.000

     PseudoPot. # 3 for Ba read from file:
     ../../PSP_DIR/Ba.pz-sp-hgh.UPF
     MD5 check sum: 155c4e4bbe33bd45901c985a874b3acf
     Pseudo is Norm-conserving, Zval = 10.0
     Generated in analytical, separable form
     Using radial grid of 1251 points,  6 beta functions with: 
                l(1) =   0
                l(2) =   0
                l(3) =   1
                l(4) =   1
                l(5) =   2
                l(6) =   3

     atomic species   valence    mass     pseudopotential
        O              6.00    15.99000     O ( 1.00)
        Ti            12.00    47.88000     Ti( 1.00)
        Ba            10.00   137.33000     Ba( 1.00)

     48 Sym. Ops., with inversion, found



   Cartesian axes

     site n.     atom                  positions (alat units)
         1           Ba  tau(   1) = (   0.0000000   0.0000000   0.0000000  )
         2           Ti  tau(   2) = (   0.5000000   0.5000000   0.5000000  )
         3           O   tau(   3) = (   0.0000000   0.5000000   0.5000000  )
         4           O   tau(   4) = (   0.5000000   0.0000000   0.5000000  )
         5           O   tau(   5) = (   0.5000000   0.5000000   0.0000000  )

     number of k points=    20
                       cart. coord. in units 2pi/alat
        k(    1) = (   0.0625000   0.0625000   0.0625000), wk =   0.0312500
        k(    2) = (   0.0625000   0.0625000   0.1875000), wk =   0.0937500
        k(    3) = (   0.0625000   0.0625000   0.3125000), wk =   0.0937500
        k(    4) = (   0.0625000   0.0625000   0.4375000), wk =   0.0937500
        k(    5) = (   0.0625000   0.1875000   0.1875000), wk =   0.0937500
        k(    6) = (   0.0625000   0.1875000   0.3125000), wk =   0.1875000
        k(    7) = (   0.0625000   0.1875000   0.4375000), wk =   0.1875000
        k(    8) = (   0.0625000   0.3125000   0.3125000), wk =   0.0937500
        k(    9) = (   0.0625000   0.3125000   0.4375000), wk =   0.1875000
        k(   10) = (   0.0625000   0.4375000   0.4375000), wk =   0.0937500
        k(   11) = (   0.1875000   0.1875000   0.1875000), wk =   0.0312500
        k(   12) = (   0.1875000   0.1875000   0.3125000), wk =   0.0937500
        k(   13) = (   0.1875000   0.1875000   0.4375000), wk =   0.0937500
        k(   14) = (   0.1875000   0.3125000   0.3125000), wk =   0.0937500
        k(   15) = (   0.1875000   0.3125000   0.4375000), wk =   0.1875000
        k(   16) = (   0.1875000   0.4375000   0.4375000), wk =   0.0937500
        k(   17) = (   0.3125000   0.3125000   0.3125000), wk =   0.0312500
        k(   18) = (   0.3125000   0.3125000   0.4375000), wk =   0.0937500
        k(   19) = (   0.3125000   0.4375000   0.4375000), wk =   0.0937500
        k(   20) = (   0.4375000   0.4375000   0.4375000), wk =   0.0312500

     Dense  grid:    54795 G-vectors     FFT dimensions: (  48,  48,  48)

     Smooth grid:    19381 G-vectors     FFT dimensions: (  36,  36,  36)

     Estimated max dynamical RAM per process >       2.45MB

     Estimated total allocated dynamical RAM >      68.62MB

     Initial potential from superposition of free atoms

     starting charge   28.99996, renormalised to   40.00000
     Starting wfc are   22 randomized atomic wfcs +    2 random wfc

     total cpu time spent up to now is        0.3 secs

     per-process dynamical memory:    31.8 Mb

     Self-consistent Calculation

     iteration #  1     ecut=    50.00 Ry     beta=0.60
     Davidson diagonalization with overlap
     ethr =  1.00E-02,  avg # of iterations = 11.7

     total cpu time spent up to now is        1.3 secs

     total energy              =      24.76917969 Ry
     Harris-Foulkes estimate   =    -365.17124492 Ry
     estimated scf accuracy    <     516.39605612 Ry

     iteration #  2     ecut=    50.00 Ry     beta=0.60
     Davidson diagonalization with overlap
     ethr =  1.00E-02,  avg # of iterations =  7.7

     total cpu time spent up to now is        2.0 secs

     total energy              =    -276.95303137 Ry
     Harris-Foulkes estimate   =    -431.61247554 Ry
     estimated scf accuracy    <     288.94022938 Ry

     iteration #  3     ecut=    50.00 Ry     beta=0.60
     Davidson diagonalization with overlap
     ethr =  1.00E-02,  avg # of iterations =  3.9

     total cpu time spent up to now is        2.4 secs

     total energy              =    -271.36047364 Ry
     Harris-Foulkes estimate   =    -293.13928455 Ry
     estimated scf accuracy    <      74.04432059 Ry

     iteration #  4     ecut=    50.00 Ry     beta=0.60
     Davidson diagonalization with overlap
     ethr =  1.00E-02,  avg # of iterations =  4.0

     negative rho (up, down):  2.090E-07 0.000E+00

     total cpu time spent up to now is        2.7 secs

     total energy              =    -268.16699427 Ry
     Harris-Foulkes estimate   =    -273.53987410 Ry
     estimated scf accuracy    <      30.32113723 Ry

     iteration #  5     ecut=    50.00 Ry     beta=0.60
     Davidson diagonalization with overlap
     ethr =  1.00E-02,  avg # of iterations =  2.9

     negative rho (up, down):  6.802E-08 0.000E+00

     total cpu time spent up to now is        3.0 secs

     total energy              =    -268.95725786 Ry
     Harris-Foulkes estimate   =    -268.94291007 Ry
     estimated scf accuracy    <      11.30879626 Ry

     iteration #  6     ecut=    50.00 Ry     beta=0.60
     Davidson diagonalization with overlap
     ethr =  1.00E-02,  avg # of iterations =  1.2

     total cpu time spent up to now is        3.2 secs

     total energy              =    -269.06730960 Ry
     Harris-Foulkes estimate   =    -268.98050486 Ry
     estimated scf accuracy    <      11.25180543 Ry

     iteration #  7     ecut=    50.00 Ry     beta=0.60
     Davidson diagonalization with overlap
     ethr =  1.00E-02,  avg # of iterations =  1.4

     negative rho (up, down):  5.687E-07 0.000E+00

     total cpu time spent up to now is        3.4 secs

     total energy              =    -266.53863400 Ry
     Harris-Foulkes estimate   =    -269.21150519 Ry
     estimated scf accuracy    <      10.60660328 Ry

     iteration #  8     ecut=    50.00 Ry     beta=0.60
     Davidson diagonalization with overlap
     ethr =  1.00E-02,  avg # of iterations =  2.5

     negative rho (up, down):  1.044E-06 0.000E+00

     total cpu time spent up to now is        3.6 secs

     total energy              =    -267.10863587 Ry
     Harris-Foulkes estimate   =    -267.00294695 Ry
     estimated scf accuracy    <       9.15135024 Ry

     iteration #  9     ecut=    50.00 Ry     beta=0.60
     Davidson diagonalization with overlap
     ethr =  1.00E-02,  avg # of iterations =  1.0

     negative rho (up, down):  9.701E-07 0.000E+00

     total cpu time spent up to now is        3.8 secs

     total energy              =    -266.78828093 Ry
     Harris-Foulkes estimate   =    -267.15204057 Ry
     estimated scf accuracy    <      11.79418369 Ry

     iteration # 10     ecut=    50.00 Ry     beta=0.60
     Davidson diagonalization with overlap
     ethr =  1.00E-02,  avg # of iterations =  1.0

     negative rho (up, down):  7.706E-05 0.000E+00

     total cpu time spent up to now is        4.0 secs

          k = 0.0625 0.0625 0.0625     band energies (ev):

   -46.2359 -23.1502 -23.1500 -23.1499 -10.4982  -9.4250  -9.4249  -2.2550
     3.6179   3.6193   3.6723   5.7476   5.7479   5.8647   5.9049   5.9053
     5.9638  10.7895  10.8207  10.8215  11.5828  11.7424  12.0124  13.3264

          k = 0.0625 0.0625 0.1875     band energies (ev):

   -46.2353 -23.1802 -23.1492 -23.1490 -10.3633  -9.4185  -9.3444  -2.3902
     3.5255   3.7063   3.7550   5.3633   5.3800   5.6412   5.8835   5.9281
     5.9581  10.7417  10.8813  11.2308  11.2434  11.5958  11.6122  13.3262

          k = 0.0625 0.0625 0.3125     band energies (ev):

   -46.2345 -23.2226 -23.1477 -23.1476 -10.1790  -9.4094  -9.2142  -2.5670
     3.0739   3.8792   3.9304   4.9058   5.0238   5.5296   5.8264   5.9448
     6.0057   9.9550  10.8671  11.1555  11.2728  11.9358  11.9709  13.3253

          k = 0.0625 0.0625 0.4375     band energies (ev):

   -46.2339 -23.2522 -23.1467 -23.1466 -10.0555  -9.4029  -9.1065  -2.6767
     2.6229   4.1304   4.1954   4.4901   4.6266   5.7394   5.7627   5.9401
     6.0468   9.3692  10.8869  10.9560  11.1158  12.3516  12.3770  13.3239

          k = 0.0625 0.1875 0.1875     band energies (ev):

   -46.2347 -23.1795 -23.1790 -23.1481 -10.2260  -9.3705  -9.3062  -2.4951
     3.5172   3.6146   3.8157   4.8799   5.1260   5.6275   5.6352   5.8997
     6.1094  10.3384  11.1979  11.2873  11.4214  11.4636  11.6565  13.6438

          k = 0.0625 0.1875 0.3125     band energies (ev):

   -46.2339 -23.2214 -23.1778 -23.1467 -10.0428  -9.3426  -9.1891  -2.6369
     3.0892   3.6482   3.9407   4.4929   4.8791   5.2963   5.6818   5.8748
     6.1791   9.9205  10.9863  11.1889  11.3461  11.9285  12.1735  13.7296

          k = 0.0625 0.1875 0.4375     band energies (ev):

   -46.2334 -23.2510 -23.1768 -23.1457  -9.9243  -9.3295  -9.0786  -2.7323
     2.6392   3.7847   3.9880   4.3397   4.7005   5.2454   5.6220   5.8443
     6.1790   9.7462  10.6896  11.0766  11.3360  12.3440  12.5589  13.7442

          k = 0.0625 0.3125 0.3125     band energies (ev):

   -46.2331 -23.2201 -23.2195 -23.1453  -9.8744  -9.2312  -9.1325  -2.7421
     3.0553   3.1692   3.9171   4.3592   4.5063   5.2650   5.3357   5.6481
     6.4654   9.9880  10.7830  11.0294  11.9046  11.9386  12.5439  13.9734

          k = 0.0625 0.3125 0.4375     band energies (ev):

   -46.2326 -23.2492 -23.2187 -23.1443  -9.7782  -9.1728  -9.0378  -2.8118
     2.6208   3.1774   3.8501   4.3336   4.5633   4.9200   5.2575   5.4987
     6.6025  10.2015  10.4906  10.9248  11.9235  12.3388  12.8576  14.0452

          k = 0.0625 0.4375 0.4375     band energies (ev):

   -46.2320 -23.2480 -23.2478 -23.1433  -9.7055  -9.0243  -9.0038  -2.8707
     2.4793   2.8471   3.9391   4.1901   4.3936   4.7930   5.1562   5.2172
     6.8340  10.1917  10.6858  10.8192  12.3334  12.3348  13.0993  14.1452

          k = 0.1875 0.1875 0.1875     band energies (ev):

   -46.2342 -23.1788 -23.1779 -23.1779 -10.0813  -9.2986  -9.2977  -2.5660
     3.5110   3.5200   3.7061   4.6158   4.6247   5.3802   5.8761   5.8800
     6.2131   9.8512  11.3336  11.3345  11.6711  11.6714  11.7283  14.3515

          k = 0.1875 0.1875 0.3125     band energies (ev):

   -46.2334 -23.2203 -23.1771 -23.1764  -9.8898  -9.2867  -9.1702  -2.6658
     3.0994   3.5024   3.6384   4.2142   4.3918   5.1173   5.8543   5.9910
     6.2905   9.6385  10.9915  11.3134  11.7290  12.1372  12.2430  14.3445

          k = 0.1875 0.1875 0.4375     band energies (ev):

   -46.2328 -23.2497 -23.1760 -23.1754  -9.7690  -9.2783  -9.0548  -2.7346
     2.6344   3.4753   3.6631   4.0178   4.5114   4.7956   5.7691   6.0497
     6.3022   9.8447  10.5076  11.2784  11.7479  12.5084  12.6202  14.3359

          k = 0.1875 0.3125 0.3125     band energies (ev):

   -46.2326 -23.2189 -23.2183 -23.1752  -9.6974  -9.1916  -9.1210  -2.7104
     3.0588   3.1499   3.3699   3.8365   4.0721   4.7423   5.9748   6.0202
     6.4997   9.6821  11.0412  11.1489  12.2245  12.2416  12.5854  14.7362

          k = 0.1875 0.3125 0.4375     band energies (ev):

   -46.2320 -23.2479 -23.2175 -23.1742  -9.5900  -9.1506  -9.0202  -2.7418
     2.6175   3.1342   3.2425   3.6739   4.1075   4.3403   5.9254   6.0603
     6.6216  10.0888  10.6333  11.1923  12.2640  12.5824  12.8856  14.8034

          k = 0.1875 0.4375 0.4375     band energies (ev):

   -46.2314 -23.2467 -23.2466 -23.1732  -9.5073  -9.0090  -8.9905  -2.7487
     2.4780   2.8233   3.2515   3.3866   3.7994   4.1348   5.9922   5.9955
     6.8410  10.3981  10.8648  10.9112  12.6146  12.6189  13.1286  14.9363

          k = 0.3125 0.3125 0.3125     band energies (ev):

   -46.2318 -23.2176 -23.2168 -23.2167  -9.4619  -9.1056  -9.1051  -2.6655
     2.9906   3.0003   3.0091   3.4161   3.4408   4.1560   6.3428   6.3435
     6.5880   9.8027  11.1869  11.1882  12.6235  12.6236  12.6943  15.6905

          k = 0.3125 0.3125 0.4375     band energies (ev):

   -46.2312 -23.2462 -23.2162 -23.2157  -9.3332  -9.0943  -8.9944  -2.6385
     2.6035   2.8128   2.9365   3.3185   3.3286   3.6619   6.4418   6.4479
     6.6928  10.2911  10.8731  11.3484  12.6943  12.9035  12.9737  15.6828

          k = 0.3125 0.4375 0.4375     band energies (ev):

   -46.2306 -23.2451 -23.2449 -23.2147  -9.2119  -8.9863  -8.9713  -2.5620
     2.4489   2.6948   2.7368   2.8920   3.1134   3.2842   6.5767   6.5815
     6.8512  10.7159  11.0862  11.2465  12.9802  12.9822  13.1842  15.9712

          k = 0.4375 0.4375 0.4375     band energies (ev):

   -46.2301 -23.2440 -23.2438 -23.2438  -9.0022  -8.9578  -8.9576  -2.4079
     2.3329   2.4446   2.4447   2.6145   2.8215   2.8688   6.8375   6.8375
     6.8709  11.1170  11.3540  11.3542  13.2284  13.2285  13.2407  16.6620

     highest occupied, lowest unoccupied level (ev):    11.3542   11.1158

!    total energy              =    -265.69113720 Ry
     Harris-Foulkes estimate   =    -266.93995178 Ry
     estimated scf accuracy    <       5.63492512 Ry

     The total energy is the sum of the following terms:

     one-electron contribution =     -74.56663877 Ry
     hartree contribution      =      45.96392952 Ry
     xc contribution           =     -41.67037526 Ry
     ewald contribution        =    -211.91466263 Ry
     scf correction            =      16.49660995 Ry

     iteration # 11     ecut=    50.00 Ry     beta=0.60
     Davidson diagonalization with overlap
     ethr =  1.00E-02,  avg # of iterations =  3.0

     negative rho (up, down):  2.513E-04 0.000E+00

     total cpu time spent up to now is        4.3 secs

     total energy              =    -272.04612780 Ry
     Harris-Foulkes estimate   =    -273.45569110 Ry
     estimated scf accuracy    <      61.07112878 Ry

     iteration # 12     ecut=    50.00 Ry     beta=0.60
     Davidson diagonalization with overlap
     ethr =  1.00E-02,  avg # of iterations =  3.0

     negative rho (up, down):  7.734E-04 0.000E+00

     total cpu time spent up to now is        4.6 secs

     total energy              =    -275.82186602 Ry
     Harris-Foulkes estimate   =    -272.54625659 Ry
     estimated scf accuracy    <      58.15380546 Ry

     iteration # 13     ecut=    50.00 Ry     beta=0.60
     Davidson diagonalization with overlap
     ethr =  1.00E-02,  avg # of iterations =  1.9

     negative rho (up, down):  4.112E-01 0.000E+00

     total cpu time spent up to now is        4.8 secs

     total energy              =    -284.11415101 Ry
     Harris-Foulkes estimate   =    -276.24853382 Ry
     estimated scf accuracy    <      69.01227770 Ry

     iteration # 14     ecut=    50.00 Ry     beta=0.60
     Davidson diagonalization with overlap
     ethr =  1.00E-02,  avg # of iterations =  3.9

     negative rho (up, down):  4.601E-03 0.000E+00

     total cpu time spent up to now is        5.1 secs

     total energy              =    -265.44843277 Ry
     Harris-Foulkes estimate   =    -286.43584613 Ry
     estimated scf accuracy    <      92.76467741 Ry

     iteration # 15     ecut=    50.00 Ry     beta=0.60
     Davidson diagonalization with overlap
     ethr =  1.00E-02,  avg # of iterations =  3.2

     negative rho (up, down):  2.083E-06 0.000E+00

     total cpu time spent up to now is        5.4 secs

     total energy              =    -266.68995072 Ry
     Harris-Foulkes estimate   =    -267.88282010 Ry
     estimated scf accuracy    <      29.95121221 Ry

     iteration # 16     ecut=    50.00 Ry     beta=0.60
     Davidson diagonalization with overlap
     ethr =  1.00E-02,  avg # of iterations =  2.0

     negative rho (up, down):  2.026E-06 0.000E+00

     total cpu time spent up to now is        5.6 secs

     total energy              =    -266.69442753 Ry
     Harris-Foulkes estimate   =    -266.97962340 Ry
     estimated scf accuracy    <      22.86819300 Ry

     iteration # 17     ecut=    50.00 Ry     beta=0.60
     Davidson diagonalization with overlap
     ethr =  1.00E-02,  avg # of iterations =  1.0

     negative rho (up, down):  1.537E-06 0.000E+00

     total cpu time spent up to now is        5.9 secs

     total energy              =    -266.37900978 Ry
     Harris-Foulkes estimate   =    -266.78171617 Ry
     estimated scf accuracy    <      19.82179631 Ry

     iteration # 18     ecut=    50.00 Ry     beta=0.60
     Davidson diagonalization with overlap
     ethr =  1.00E-02,  avg # of iterations =  1.3

     total cpu time spent up to now is        6.2 secs

     total energy              =    -258.00707814 Ry
     Harris-Foulkes estimate   =    -266.47393630 Ry
     estimated scf accuracy    <      16.36430101 Ry

     iteration # 19     ecut=    50.00 Ry     beta=0.60
     Davidson diagonalization with overlap
     ethr =  1.00E-02,  avg # of iterations =  4.3

     negative rho (up, down):  1.404E-07 0.000E+00

     total cpu time spent up to now is        6.6 secs

     total energy              =    -265.35724159 Ry
     Harris-Foulkes estimate   =    -266.54285614 Ry
     estimated scf accuracy    <       4.27524207 Ry

     iteration # 20     ecut=    50.00 Ry     beta=0.60
     Davidson diagonalization with overlap
     ethr =  1.00E-02,  avg # of iterations =  1.2

     total cpu time spent up to now is        6.8 secs

          k = 0.0625 0.0625 0.0625     band energies (ev):

   -38.1984 -15.2721 -15.2618 -15.2617 -13.9715  -7.4174  -6.9225  -6.9220
     0.9471   0.9475   1.0405   7.3821   7.5386   7.5387   7.6244   7.6246
     7.7669   8.7937   8.9253   8.9254  15.8096  15.8439  17.4106  18.6067

          k = 0.0625 0.0625 0.1875     band energies (ev):

   -38.1972 -15.3666 -15.2633 -15.2598 -13.8979  -7.4575  -6.9110  -6.7792
     0.9758   0.9994   1.1948   7.0151   7.2685   7.4158   7.5173   7.5442
     7.7561   8.3255   8.8095   8.8153  16.2541  16.5002  17.9703  18.0790

          k = 0.0625 0.0625 0.3125     band energies (ev):

   -38.1956 -15.4951 -15.2585 -15.2563 -13.8015  -7.5982  -6.8954  -6.4844
     1.0770   1.0932   1.3412   6.5974   6.9658   7.0667   7.3155   7.3502
     7.7546   7.8989   8.6447   8.6590  16.9068  17.4510  18.7188  19.1644

          k = 0.0625 0.0625 0.4375     band energies (ev):

   -38.1945 -15.5794 -15.2551 -15.2541 -13.7361  -7.7157  -6.8829  -6.2493
     1.1337   1.2201   1.4031   6.3248   6.7893   6.8156   6.9888   7.1342
     7.7776   7.8658   8.5067   8.5429  17.4690  18.4370  19.9270  20.2010

          k = 0.0625 0.1875 0.1875     band energies (ev):

   -38.1960 -15.3740 -15.3401 -15.2586 -13.8443  -7.4146  -6.8088  -6.7833
     0.9064   1.0310   1.3436   6.6461   7.1111   7.3284   7.4010   7.4458
     7.8629   8.0210   8.6913   8.6960  16.5793  17.8899  18.4891  18.6860

          k = 0.0625 0.1875 0.3125     band energies (ev):

   -38.1944 -15.4825 -15.3432 -15.2548 -13.7726  -7.4677  -6.7974  -6.5317
     0.9277   1.0978   1.4028   6.3208   6.8261   7.0509   7.1420   7.3756
     7.7333   7.9475   8.5263   8.5606  17.2102  18.4467  18.6818  19.6699

          k = 0.0625 0.1875 0.4375     band energies (ev):

   -38.1931 -15.5631 -15.3366 -15.2520 -13.7236  -7.5431  -6.7938  -6.3078
     0.9898   1.1842   1.3490   6.1808   6.4482   6.8199   6.9911   7.3034
     7.6899   8.0871   8.3545   8.4025  17.7277  19.3266  19.3848  19.6738

          k = 0.0625 0.3125 0.3125     band energies (ev):

   -38.1925 -15.4757 -15.4474 -15.2514 -13.7330  -7.3636  -6.5879  -6.5853
     0.8394   1.0711   1.4019   6.0342   6.4807   7.0075   7.0869   7.1029
     7.6755   8.0654   8.3454   8.6197  17.6363  18.8690  19.2049  20.0566

          k = 0.0625 0.3125 0.4375     band energies (ev):

   -38.1916 -15.5399 -15.4475 -15.2490 -13.7053  -7.3417  -6.6140  -6.3904
     0.8522   0.9871   1.3987   5.8944   6.1262   6.8340   6.9013   7.0932
     7.8945   8.1007   8.2257   8.5974  18.1780  19.0522  19.3466  19.8368

          k = 0.0625 0.4375 0.4375     band energies (ev):

   -38.1906 -15.5253 -15.5208 -15.2468 -13.6924  -7.2345  -6.4506  -6.4461
     0.7884   0.8331   1.4411   5.6693   5.9247   6.6919   6.8485   6.8580
     8.0620   8.2013   8.2731   8.6909  18.5477  18.7190  19.5054  19.6849

          k = 0.1875 0.1875 0.1875     band energies (ev):

   -38.1950 -15.3749 -15.3377 -15.3371 -13.8028  -7.3057  -6.7674  -6.7645
     0.8649   0.8655   1.5198   6.3100   7.0975   7.0987   7.4368   7.4456
     7.7364   8.0264   8.5653   8.5748  17.0668  18.2028  18.7097  18.9884

          k = 0.1875 0.1875 0.3125     band energies (ev):

   -38.1935 -15.4722 -15.3453 -15.3337 -13.7466  -7.2951  -6.7418  -6.5520
     0.8037   0.8470   1.5173   6.0830   6.8436   6.9810   7.2213   7.3906
     7.5927   8.0895   8.3885   8.4698  17.5475  18.9798  19.3542  19.4588

          k = 0.1875 0.1875 0.4375     band energies (ev):

   -38.1924 -15.5502 -15.3368 -15.3310 -13.7079  -7.3448  -6.7237  -6.3380
     0.7579   0.9616   1.3634   6.0843   6.3677   7.0127   7.0372   7.2810
     7.7906   8.1248   8.2295   8.2804  18.0931  19.1562  19.6031  19.7420

          k = 0.1875 0.3125 0.3125     band energies (ev):

   -38.1920 -15.4664 -15.4442 -15.3335 -13.7102  -7.1426  -6.5793  -6.5592
     0.6752   0.6987   1.4023   5.9807   6.6250   6.9802   7.1967   7.3179
     7.4301   8.2245   8.2359   8.5343  17.9796  18.9700  19.0678  19.5736

          k = 0.1875 0.3125 0.4375     band energies (ev):

   -38.1910 -15.5321 -15.4443 -15.3297 -13.6847  -7.1072  -6.5709  -6.3823
     0.5823   0.7100   1.1961   6.0113   6.2716   6.9083   7.0909   7.2922
     7.6360   8.1405   8.2260   8.5491  18.5141  18.8669  19.0503  19.3655

          k = 0.1875 0.4375 0.4375     band energies (ev):

   -38.1898 -15.5209 -15.5173 -15.3270 -13.6682  -6.9870  -6.4145  -6.4138
     0.5441   0.5478   0.9949   5.8918   6.2613   6.6943   7.1395   7.1681
     7.5937   8.2573   8.3345   8.6884  18.3795  18.9781  19.0422  19.3064

          k = 0.3125 0.3125 0.3125     band energies (ev):

   -38.1905 -15.4578 -15.4398 -15.4394 -13.6780  -6.8807  -6.5180  -6.5177
     0.4530   0.4550   1.1253   6.0312   6.7751   6.9916   6.9931   7.3249
     7.3290   8.3960   8.3973   8.4156  18.3449  18.4027  18.7905  19.8669

          k = 0.3125 0.3125 0.4375     band energies (ev):

   -38.1895 -15.5211 -15.4417 -15.4366 -13.6549  -6.7927  -6.4878  -6.3714
     0.3021   0.4103   0.8139   5.9595   6.6594   6.9068   7.0072   7.4396
     7.4462   8.2808   8.4767   8.5229  18.4965  18.5177  18.7861  19.6948

          k = 0.3125 0.4375 0.4375     band energies (ev):

   -38.1885 -15.5142 -15.5122 -15.4354 -13.6337  -6.6278  -6.3669  -6.3599
     0.2020   0.2267   0.4744   5.7960   6.7016   6.9533   7.0156   7.4555
     7.5078   8.4476   8.4954   8.6895  18.0810  18.3666  18.3906  20.1481

          k = 0.4375 0.4375 0.4375     band energies (ev):

   -38.1875 -15.5126 -15.5087 -15.5087 -13.6099  -6.3807  -6.3207  -6.3207
     0.0153   0.0179   0.1198   5.6300   6.6935   6.6940   7.4135   7.5735
     7.5984   8.6676   8.6677  17.8068  17.8901  17.9057  19.9278  19.9638

     highest occupied, lowest unoccupied level (ev):    17.8068   15.8096

!    total energy              =    -265.36239677 Ry
     Harris-Foulkes estimate   =    -265.43930507 Ry
     estimated scf accuracy    <       2.55970744 Ry

     The total energy is the sum of the following terms:

     one-electron contribution =     -66.63640061 Ry
     hartree contribution      =      59.25068534 Ry
     xc contribution           =     -42.69267868 Ry
     ewald contribution        =    -211.91466263 Ry
     scf correction            =      -3.36934019 Ry

     iteration # 21     ecut=    50.00 Ry     beta=0.60
     Davidson diagonalization with overlap
     ethr =  6.40E-03,  avg # of iterations =  1.0

     negative rho (up, down):  1.428E-07 0.000E+00

     total cpu time spent up to now is        7.0 secs

     total energy              =    -265.29176318 Ry
     Harris-Foulkes estimate   =    -265.37994430 Ry
     estimated scf accuracy    <       2.45197837 Ry

     iteration # 22     ecut=    50.00 Ry     beta=0.60
     Davidson diagonalization with overlap
     ethr =  6.13E-03,  avg # of iterations =  1.0

     negative rho (up, down):  1.396E-06 0.000E+00

     total cpu time spent up to now is        7.2 secs

     total energy              =    -264.57173246 Ry
     Harris-Foulkes estimate   =    -265.30718224 Ry
     estimated scf accuracy    <       2.02974864 Ry

     iteration # 23     ecut=    50.00 Ry     beta=0.60
     Davidson diagonalization with overlap
     ethr =  5.07E-03,  avg # of iterations =  4.0

     negative rho (up, down):  1.755E-06 0.000E+00

     total cpu time spent up to now is        7.5 secs

     total energy              =    -264.83600114 Ry
     Harris-Foulkes estimate   =    -264.83055726 Ry
     estimated scf accuracy    <       0.18901885 Ry

     iteration # 24     ecut=    50.00 Ry     beta=0.60
     Davidson diagonalization with overlap
     ethr =  4.73E-04,  avg # of iterations =  3.9

     negative rho (up, down):  1.785E-06 0.000E+00

     total cpu time spent up to now is        7.8 secs

     total energy              =    -264.91695006 Ry
     Harris-Foulkes estimate   =    -264.91342252 Ry
     estimated scf accuracy    <       0.52984768 Ry

     iteration # 25     ecut=    50.00 Ry     beta=0.60
     Davidson diagonalization with overlap
     ethr =  4.73E-04,  avg # of iterations =  1.0

     negative rho (up, down):  1.555E-06 0.000E+00

     total cpu time spent up to now is        8.0 secs

     total energy              =    -264.76907160 Ry
     Harris-Foulkes estimate   =    -264.92075166 Ry
     estimated scf accuracy    <       0.70031696 Ry

     iteration # 26     ecut=    50.00 Ry     beta=0.60
     Davidson diagonalization with overlap
     ethr =  4.73E-04,  avg # of iterations =  3.0

     negative rho (up, down):  9.554E-07 0.000E+00

     total cpu time spent up to now is        8.3 secs

     total energy              =    -264.78185998 Ry
     Harris-Foulkes estimate   =    -264.85507647 Ry
     estimated scf accuracy    <       0.19690242 Ry

     iteration # 27     ecut=    50.00 Ry     beta=0.60
     Davidson diagonalization with overlap
     ethr =  4.73E-04,  avg # of iterations =  3.8

     negative rho (up, down):  4.964E-07 0.000E+00

     total cpu time spent up to now is        8.6 secs

     total energy              =    -264.88669620 Ry
     Harris-Foulkes estimate   =    -264.84287818 Ry
     estimated scf accuracy    <       0.25966911 Ry

     iteration # 28     ecut=    50.00 Ry     beta=0.60
     Davidson diagonalization with overlap
     ethr =  4.73E-04,  avg # of iterations =  4.7

     negative rho (up, down):  5.879E-07 0.000E+00

     total cpu time spent up to now is        9.0 secs

     total energy              =    -264.83808071 Ry
     Harris-Foulkes estimate   =    -264.91203648 Ry
     estimated scf accuracy    <       0.42757978 Ry

     iteration # 29     ecut=    50.00 Ry     beta=0.60
     Davidson diagonalization with overlap
     ethr =  4.73E-04,  avg # of iterations =  1.1

     negative rho (up, down):  5.938E-07 0.000E+00

     total cpu time spent up to now is        9.1 secs

     total energy              =    -264.83650677 Ry
     Harris-Foulkes estimate   =    -264.84564068 Ry
     estimated scf accuracy    <       0.29113671 Ry

     iteration # 30     ecut=    50.00 Ry     beta=0.60
     Davidson diagonalization with overlap
     ethr =  4.73E-04,  avg # of iterations =  1.6

     negative rho (up, down):  5.931E-07 0.000E+00

     total cpu time spent up to now is        9.4 secs

          k = 0.0625 0.0625 0.0625     band energies (ev):

   -42.3761 -19.1552 -19.1543 -19.1543 -13.9841  -5.8537  -5.1620  -5.1619
     1.0123   1.0123   1.1023   8.5554   8.7131   8.7133   9.3457   9.3457
     9.5811  10.5278  10.6979  10.6983  14.3526  14.3757  14.3765  16.0840

          k = 0.0625 0.0625 0.1875     band energies (ev):

   -42.3755 -19.1853 -19.1536 -19.1531 -13.9398  -5.9014  -5.1476  -5.0983
     1.0506   1.0550   1.2682   8.1320   8.5679   8.5714   9.0044   9.1194
     9.5034   9.9505  10.5170  10.5282  14.4391  14.8927  14.9178  16.6683

          k = 0.0625 0.0625 0.3125     band energies (ev):

   -42.3747 -19.2280 -19.1518 -19.1515 -13.8758  -6.0485  -5.1272  -4.9080
     1.1171   1.1574   1.4460   7.5626   8.2627   8.2787   8.7569   8.7658
     9.3278   9.4846  10.2824  10.3098  14.5453  15.6310  15.6636  17.4859

          k = 0.0625 0.0625 0.4375     band energies (ev):

   -42.3742 -19.2578 -19.1505 -19.1503 -13.8298  -6.1758  -5.1126  -4.7346
     1.1622   1.2522   1.5495   7.1499   8.0527   8.0770   8.4027   8.5877
     9.2419   9.4007  10.1015  10.1660  14.6232  16.1690  16.1881  18.1002

          k = 0.0625 0.1875 0.1875     band energies (ev):

   -42.3750 -19.1852 -19.1820 -19.1522 -13.9008  -5.8719  -5.1217  -5.0918
     1.0056   1.0862   1.4089   7.7798   8.4393   8.4574   8.6599   8.8823
     9.5616   9.6655  10.3264  10.3978  14.9178  15.0172  15.1793  17.2007

          k = 0.0625 0.1875 0.3125     band energies (ev):

   -42.3742 -19.2258 -19.1811 -19.1505 -13.8449  -5.9255  -5.0936  -4.9623
     1.0318   1.1597   1.4769   7.3656   8.0334   8.1940   8.3494   8.6960
     9.2868   9.6667  10.0715  10.2632  15.0487  15.6754  15.7625  17.9120

          k = 0.0625 0.1875 0.4375     band energies (ev):

   -42.3736 -19.2551 -19.1795 -19.1493 -13.8047  -6.0077  -5.0717  -4.8155
     1.0644   1.2881   1.4261   7.0636   7.6687   8.0632   8.0965   8.6176
     9.2767   9.6706   9.9135  10.0681  15.1100  16.1907  16.2516  18.4622

          k = 0.0625 0.3125 0.3125     band energies (ev):

   -42.3734 -19.2240 -19.2209 -19.1489 -13.8005  -5.7950  -5.0622  -4.9682
     0.9912   1.1555   1.4524   7.0997   7.5721   7.8515   8.3021   8.3987
     9.2417   9.7873   9.8227  10.4261  15.6913  15.7853  16.0775  18.4717

          k = 0.0625 0.3125 0.4375     band energies (ev):

   -42.3729 -19.2512 -19.2201 -19.1478 -13.7685  -5.7554  -5.0285  -4.9222
     0.9991   1.1477   1.4087   6.9259   7.1166   7.6958   8.0924   8.3512
     9.4405   9.6285   9.8184  10.4683  15.7684  16.2217  16.4839  18.1256

          k = 0.0625 0.4375 0.4375     band energies (ev):

   -42.3723 -19.2488 -19.2482 -19.1467 -13.7426  -5.5641  -5.0184  -4.9843
     0.9805   1.0177   1.4254   6.7434   6.8140   7.3926   8.0968   8.1045
     9.3332   9.8636   9.9651  10.6437  16.2311  16.2454  16.7946  18.1006

          k = 0.1875 0.1875 0.1875     band energies (ev):

   -42.3744 -19.1846 -19.1807 -19.1807 -13.8658  -5.7982  -5.0940  -5.0940
     0.9575   0.9575   1.5724   7.4530   8.3427   8.3435   8.6481   8.6482
     9.1271   9.8852  10.2384  10.2392  15.2505  15.3014  15.3333  17.7078

          k = 0.1875 0.1875 0.3125     band energies (ev):

   -42.3736 -19.2237 -19.1806 -19.1788 -13.8158  -5.7873  -5.0539  -4.9920
     0.8859   0.9753   1.5797   7.1705   7.9016   8.2037   8.3716   8.5467
     8.9585   9.9116  10.0324  10.1614  15.4072  15.7678  15.9062  18.2891

          k = 0.1875 0.1875 0.4375     band energies (ev):

   -42.3731 -19.2527 -19.1789 -19.1776 -13.7800  -5.8347  -5.0249  -4.8548
     0.8328   1.1235   1.4322   7.0038   7.5118   8.0900   8.1682   8.4795
     9.1331   9.8113   9.9242  10.0046  15.4778  16.2568  16.3537  18.7995

          k = 0.1875 0.3125 0.3125     band energies (ev):

   -42.3729 -19.2220 -19.2194 -19.1778 -13.7741  -5.6312  -5.0154  -4.9684
     0.7995   0.8206   1.4842   7.0315   7.7164   7.8310   8.3828   8.4272
     8.7318   9.8762  10.0523  10.3392  15.9239  15.9655  16.1935  18.7636

          k = 0.1875 0.3125 0.4375     band energies (ev):

   -42.3723 -19.2493 -19.2186 -19.1764 -13.7441  -5.5745  -4.9722  -4.9066
     0.6964   0.8809   1.2839   6.9324   7.3590   7.7170   8.2124   8.4481
     8.8405   9.8392  10.0058  10.4308  16.0176  16.3824  16.5759  18.9834

          k = 0.1875 0.4375 0.4375     band energies (ev):

   -42.3718 -19.2471 -19.2466 -19.1752 -13.7181  -5.3750  -4.9581  -4.9306
     0.7072   0.7276   1.0718   6.7878   7.3149   7.3957   8.3033   8.3308
     8.6826  10.0100  10.1009  10.6513  16.4276  16.4395  16.8356  18.5822

          k = 0.3125 0.3125 0.3125     band energies (ev):

   -42.3721 -19.2201 -19.2174 -19.2174 -13.7362  -5.4158  -4.9463  -4.9463
     0.5847   0.5847   1.2473   7.0383   7.8201   7.8204   7.9305   8.4891
     8.4895  10.1714  10.1715  10.3491  16.2709  16.3280  16.3842  19.1150

          k = 0.3125 0.3125 0.4375     band energies (ev):

   -42.3715 -19.2466 -19.2172 -19.2160 -13.7089  -5.3031  -4.8952  -4.8854
     0.4212   0.5763   0.9500   6.8957   7.6295   7.8126   7.8207   8.5456
     8.5912  10.1021  10.3301  10.4620  16.4160  16.6546  16.6554  18.8768

          k = 0.3125 0.4375 0.4375     band energies (ev):

   -42.3710 -19.2447 -19.2445 -19.2151 -13.6839  -5.0931  -4.8675  -4.8522
     0.3415   0.3890   0.6142   6.7328   7.4021   7.7900   8.0246   8.5534
     8.5911  10.3334  10.3861  10.6690  16.7393  16.7535  16.9710  18.3494

          k = 0.4375 0.4375 0.4375     band energies (ev):

   -42.3705 -19.2432 -19.2430 -19.2429 -13.6594  -4.8776  -4.7991  -4.7991
     0.1595   0.1595   0.2714   6.5757   7.4072   7.4072   8.4789   8.6500
     8.6500  10.6384  10.6385  10.7052  16.9884  17.0138  17.0148  18.1526

     highest occupied, lowest unoccupied level (ev):    10.7052   14.3526

!    total energy              =    -264.83599367 Ry
     Harris-Foulkes estimate   =    -264.83817670 Ry
     estimated scf accuracy    <       0.25476054 Ry

     The total energy is the sum of the following terms:

     one-electron contribution =     -66.29006305 Ry
     hartree contribution      =      59.23058842 Ry
     xc contribution           =     -42.92053339 Ry
     ewald contribution        =    -211.91466263 Ry
     scf correction            =      -2.94132302 Ry

     iteration # 31     ecut=    50.00 Ry     beta=0.60
     Davidson diagonalization with overlap
     ethr =  4.73E-04,  avg # of iterations =  1.0

     negative rho (up, down):  6.660E-07 0.000E+00

     total cpu time spent up to now is        9.5 secs

     total energy              =    -264.75755555 Ry
     Harris-Foulkes estimate   =    -264.83643381 Ry
     estimated scf accuracy    <       0.24269818 Ry

     iteration # 32     ecut=    50.00 Ry     beta=0.60
     Davidson diagonalization with overlap
     ethr =  4.73E-04,  avg # of iterations =  4.0

     negative rho (up, down):  6.552E-07 0.000E+00

     total cpu time spent up to now is        9.8 secs

     total energy              =    -264.77392745 Ry
     Harris-Foulkes estimate   =    -264.78217954 Ry
     estimated scf accuracy    <       0.01514122 Ry

     iteration # 33     ecut=    50.00 Ry     beta=0.60
     Davidson diagonalization with overlap
     ethr =  3.79E-05,  avg # of iterations =  4.6

     negative rho (up, down):  6.367E-07 0.000E+00

     total cpu time spent up to now is       10.2 secs

     total energy              =    -264.77747786 Ry
     Harris-Foulkes estimate   =    -264.78179997 Ry
     estimated scf accuracy    <       0.00974310 Ry

     iteration # 34     ecut=    50.00 Ry     beta=0.60
     Davidson diagonalization with overlap
     ethr =  2.44E-05,  avg # of iterations =  3.0

     negative rho (up, down):  6.225E-07 0.000E+00

     total cpu time spent up to now is       10.5 secs

     total energy              =    -264.78013081 Ry
     Harris-Foulkes estimate   =    -264.78041761 Ry
     estimated scf accuracy    <       0.00211004 Ry

     iteration # 35     ecut=    50.00 Ry     beta=0.60
     Davidson diagonalization with overlap
     ethr =  5.28E-06,  avg # of iterations =  2.0

     negative rho (up, down):  6.229E-07 0.000E+00

     total cpu time spent up to now is       10.7 secs

     total energy              =    -264.77999756 Ry
     Harris-Foulkes estimate   =    -264.78020951 Ry
     estimated scf accuracy    <       0.00101237 Ry

     iteration # 36     ecut=    50.00 Ry     beta=0.60
     Davidson diagonalization with overlap
     ethr =  2.53E-06,  avg # of iterations =  2.0

     negative rho (up, down):  6.263E-07 0.000E+00

     total cpu time spent up to now is       10.9 secs

     total energy              =    -264.78004948 Ry
     Harris-Foulkes estimate   =    -264.78006072 Ry
     estimated scf accuracy    <       0.00024600 Ry

     iteration # 37     ecut=    50.00 Ry     beta=0.60
     Davidson diagonalization with overlap
     ethr =  6.15E-07,  avg # of iterations =  1.1

     negative rho (up, down):  6.293E-07 0.000E+00

     total cpu time spent up to now is       11.1 secs

     total energy              =    -264.78010323 Ry
     Harris-Foulkes estimate   =    -264.78005465 Ry
     estimated scf accuracy    <       0.00021612 Ry

     iteration # 38     ecut=    50.00 Ry     beta=0.60
     Davidson diagonalization with overlap
     ethr =  5.40E-07,  avg # of iterations =  1.0

     negative rho (up, down):  6.305E-07 0.000E+00

     total cpu time spent up to now is       11.3 secs

     total energy              =    -264.77991688 Ry
     Harris-Foulkes estimate   =    -264.78012091 Ry
     estimated scf accuracy    <       0.00055441 Ry

     iteration # 39     ecut=    50.00 Ry     beta=0.60
     Davidson diagonalization with overlap
     ethr =  5.40E-07,  avg # of iterations =  3.0

     negative rho (up, down):  6.344E-07 0.000E+00

     total cpu time spent up to now is       11.5 secs

     total energy              =    -264.78001153 Ry
     Harris-Foulkes estimate   =    -264.78000894 Ry
     estimated scf accuracy    <       0.00000689 Ry

     iteration # 40     ecut=    50.00 Ry     beta=0.60
     Davidson diagonalization with overlap
     ethr =  1.72E-08,  avg # of iterations =  3.2

     negative rho (up, down):  6.338E-07 0.000E+00

     total cpu time spent up to now is       11.9 secs

          k = 0.0625 0.0625 0.0625     band energies (ev):

   -44.6874 -21.2838 -21.2834 -21.2834 -13.7634  -5.7311  -5.0308  -5.0308
     1.2130   1.2130   1.3032   8.5502   8.6813   8.6813   9.5268   9.5268
     9.7999  10.6274  10.8221  10.8221  12.9654  13.0063  13.0063  15.6169

          k = 0.0625 0.0625 0.1875     band energies (ev):

   -44.6870 -21.3040 -21.2828 -21.2826 -13.7202  -5.7790  -5.0166  -4.9782
     1.2525   1.2567   1.4703   8.0520   8.5185   8.5567   9.1342   9.2296
     9.7010  10.0457  10.6057  10.6120  13.0313  13.5603  13.5614  15.6281

          k = 0.0625 0.0625 0.3125     band energies (ev):

   -44.6864 -21.3326 -21.2815 -21.2814 -13.6574  -5.9241  -4.9963  -4.8053
     1.3202   1.3614   1.6497   7.3425   8.2529   8.3013   8.8142   8.8625
     9.4637   9.6170  10.3400  10.3710  13.0945  14.2681  14.2755  15.6330

          k = 0.0625 0.0625 0.4375     band energies (ev):

   -44.6859 -21.3526 -21.2806 -21.2805 -13.6122  -6.0505  -4.9819  -4.6436
     1.3663   1.4582   1.7542   6.8470   8.0743   8.1070   8.4671   8.7137
     9.3202   9.5180  10.1427  10.2225  13.1403  14.7451  14.7482  15.6328

          k = 0.0625 0.1875 0.1875     band energies (ev):

   -44.6865 -21.3036 -21.3022 -21.2818 -13.6812  -5.7526  -5.0036  -4.9675
     1.2081   1.2887   1.6132   7.7455   8.2431   8.4465   8.7241   8.9679
     9.6174   9.8820  10.3567  10.5384  13.5259  13.6606  13.8498  15.9997

          k = 0.0625 0.1875 0.3125     band energies (ev):

   -44.6860 -21.3312 -21.3013 -21.2806 -13.6254  -5.8060  -4.9727  -4.8573
     1.2356   1.3639   1.6836   7.2191   7.9132   8.1356   8.3686   8.7302
     9.3914   9.8468  10.0729  10.4175  13.6347  14.2970  14.3782  16.0984

          k = 0.0625 0.1875 0.4375     band energies (ev):

   -44.6855 -21.3511 -21.3003 -21.2797 -13.5850  -5.8876  -4.9483  -4.7250
     1.2687   1.4952   1.6335   6.7886   7.6899   7.9474   8.1062   8.6460
     9.4368   9.7288   9.9415  10.2321  13.6737  14.7588  14.8032  16.1146

          k = 0.0625 0.3125 0.3125     band energies (ev):

   -44.6854 -21.3300 -21.3286 -21.2794 -13.5791  -5.6778  -4.9618  -4.8580
     1.1970   1.3599   1.6627   6.9986   7.5001   7.5315   8.2985   8.4223
     9.3560   9.7679  10.0347  10.6319  14.2607  14.3813  14.6783  16.3501

          k = 0.0625 0.3125 0.4375     band energies (ev):

   -44.6849 -21.3489 -21.3280 -21.2786 -13.5458  -5.6382  -4.9226  -4.8297
     1.2058   1.3544   1.6204   6.7109   7.1049   7.3664   8.1012   8.3524
     9.4093   9.7731  10.0084  10.6858  14.3403  14.7773  14.9902  16.4180

          k = 0.0625 0.4375 0.4375     band energies (ev):

   -44.6845 -21.3475 -21.3473 -21.2778 -13.5177  -5.4421  -4.9301  -4.8918
     1.1896   1.2264   1.6379   6.5681   6.7849   6.9782   8.0957   8.1054
     9.2293  10.0683  10.1757  10.8778  14.7783  14.7983  15.2062  16.5067

          k = 0.1875 0.1875 0.1875     band energies (ev):

   -44.6861 -21.3030 -21.3013 -21.3013 -13.6459  -5.6848  -4.9758  -4.9758
     1.1594   1.1594   1.7808   7.4499   8.1750   8.1750   8.7017   8.7017
     9.0970  10.1082  10.3546  10.3546  13.8911  13.9317  13.9317  16.8293

          k = 0.1875 0.1875 0.3125     band energies (ev):

   -44.6855 -21.3300 -21.3008 -21.3000 -13.5951  -5.6750  -4.9357  -4.8895
     1.0870   1.1785   1.7909   7.0913   7.7081   8.0702   8.3379   8.5619
     8.9531  10.0814  10.1687  10.3213  14.0019  14.4237  14.4664  16.8197

          k = 0.1875 0.1875 0.4375     band energies (ev):

   -44.6851 -21.3497 -21.2997 -21.2991 -13.5587  -5.7214  -4.9067  -4.7650
     1.0333   1.3282   1.6444   6.7529   7.4930   7.9898   8.0191   8.5147
     9.1020   9.9132  10.0987  10.1952  14.0560  14.8378  14.8721  16.8043

          k = 0.1875 0.3125 0.3125     band energies (ev):

   -44.6850 -21.3288 -21.3276 -21.2991 -13.5518  -5.5238  -4.9150  -4.8606
     0.9997   1.0232   1.6966   6.9557   7.4812   7.6117   8.2701   8.4472
     8.7250  10.0087  10.2644  10.5420  14.5021  14.5607  14.7648  17.2277

          k = 0.1875 0.3125 0.4375     band energies (ev):

   -44.6845 -21.3477 -21.3270 -21.2981 -13.5205  -5.4667  -4.8682  -4.8147
     0.8964   1.0840   1.4951   6.7122   7.3046   7.4280   8.0996   8.4518
     8.7687  10.0114  10.2166  10.6482  14.5891  14.9247  15.0694  17.2786

          k = 0.1875 0.4375 0.4375     band energies (ev):

   -44.6841 -21.3464 -21.3462 -21.2972 -13.4929  -5.2642  -4.8697  -4.8383
     0.9087   0.9310   1.2784   6.5808   6.9807   7.3215   8.2194   8.3238
     8.5411  10.2199  10.3160  10.8851  14.9681  14.9816  15.2887  17.3639

          k = 0.3125 0.3125 0.3125     band energies (ev):

   -44.6844 -21.3275 -21.3262 -21.3262 -13.5125  -5.3181  -4.8457  -4.8457
     0.7835   0.7835   1.4564   6.9597   7.4672   7.4672   7.8931   8.4995
     8.4995  10.3625  10.3625  10.5795  14.8749  14.8749  14.8993  18.2425

          k = 0.3125 0.3125 0.4375     band energies (ev):

   -44.6839 -21.3460 -21.3258 -21.3252 -13.4841  -5.2057  -4.7962  -4.7945
     0.6176   0.7754   1.1552   6.7027   7.3410   7.4637   7.7710   8.5444
     8.5786  10.3061  10.5490  10.6889  14.9666  15.1671  15.1934  18.1789

          k = 0.3125 0.4375 0.4375     band energies (ev):

   -44.6835 -21.3448 -21.3447 -21.3245 -13.4582  -4.9972  -4.7790  -4.7608
     0.5374   0.5863   0.8140   6.5667   6.9860   7.4490   8.0108   8.5344
     8.5713  10.5565  10.6115  10.9040  15.2607  15.2631  15.4092  18.2071

          k = 0.4375 0.4375 0.4375     band energies (ev):

   -44.6831 -21.3438 -21.3436 -21.3436 -13.4334  -4.7897  -4.7106  -4.7106
     0.3535   0.3535   0.4668   6.4429   6.9906   6.9906   8.4523   8.6226
     8.6226  10.8721  10.8721  10.9420  15.4969  15.4969  15.4981  18.2399

     highest occupied, lowest unoccupied level (ev):    10.9420   12.9654

!    total energy              =    -264.78000613 Ry
     Harris-Foulkes estimate   =    -264.78001651 Ry
     estimated scf accuracy    <       0.00003679 Ry

     The total energy is the sum of the following terms:

     one-electron contribution =     -68.21995776 Ry
     hartree contribution      =      58.12747911 Ry
     xc contribution           =     -42.80270276 Ry
     ewald contribution        =    -211.91466263 Ry
     scf correction            =       0.02983791 Ry

     iteration # 41     ecut=    50.00 Ry     beta=0.60
     Davidson diagonalization with overlap
     ethr =  1.72E-08,  avg # of iterations =  3.0

     negative rho (up, down):  6.337E-07 0.000E+00

     total cpu time spent up to now is       12.1 secs

     total energy              =    -264.78000918 Ry
     Harris-Foulkes estimate   =    -264.78000955 Ry
     estimated scf accuracy    <       0.00000475 Ry

     iteration # 42     ecut=    50.00 Ry     beta=0.60
     Davidson diagonalization with overlap
     ethr =  1.19E-08,  avg # of iterations =  1.0

     negative rho (up, down):  6.333E-07 0.000E+00

     total cpu time spent up to now is       12.3 secs

     total energy              =    -264.78000807 Ry
     Harris-Foulkes estimate   =    -264.78000921 Ry
     estimated scf accuracy    <       0.00000380 Ry

     iteration # 43     ecut=    50.00 Ry     beta=0.60
     Davidson diagonalization with overlap
     ethr =  9.50E-09,  avg # of iterations =  1.0

     negative rho (up, down):  6.317E-07 0.000E+00

     total cpu time spent up to now is       12.5 secs

     total energy              =    -264.78000755 Ry
     Harris-Foulkes estimate   =    -264.78000816 Ry
     estimated scf accuracy    <       0.00000120 Ry

     iteration # 44     ecut=    50.00 Ry     beta=0.60
     Davidson diagonalization with overlap
     ethr =  2.99E-09,  avg # of iterations =  2.9

     negative rho (up, down):  6.321E-07 0.000E+00

     total cpu time spent up to now is       12.8 secs

     total energy              =    -264.78000772 Ry
     Harris-Foulkes estimate   =    -264.78000778 Ry
     estimated scf accuracy    <       0.00000010 Ry

     iteration # 45     ecut=    50.00 Ry     beta=0.60
     Davidson diagonalization with overlap
     ethr =  2.51E-10,  avg # of iterations =  2.4

     negative rho (up, down):  6.318E-07 0.000E+00

     total cpu time spent up to now is       13.1 secs

     total energy              =    -264.78000774 Ry
     Harris-Foulkes estimate   =    -264.78000774 Ry
     estimated scf accuracy    <          5.3E-09 Ry

     iteration # 46     ecut=    50.00 Ry     beta=0.60
     Davidson diagonalization with overlap
     ethr =  1.34E-11,  avg # of iterations =  3.3

     negative rho (up, down):  6.318E-07 0.000E+00

     total cpu time spent up to now is       13.4 secs

     total energy              =    -264.78000774 Ry
     Harris-Foulkes estimate   =    -264.78000774 Ry
     estimated scf accuracy    <          7.1E-09 Ry

     iteration # 47     ecut=    50.00 Ry     beta=0.60
     Davidson diagonalization with overlap
     ethr =  1.34E-11,  avg # of iterations =  3.0

     negative rho (up, down):  6.319E-07 0.000E+00

     total cpu time spent up to now is       13.7 secs

     total energy              =    -264.78000774 Ry
     Harris-Foulkes estimate   =    -264.78000774 Ry
     estimated scf accuracy    <          1.7E-10 Ry

     iteration # 48     ecut=    50.00 Ry     beta=0.60
     Davidson diagonalization with overlap
     ethr =  4.18E-13,  avg # of iterations =  2.6

     negative rho (up, down):  6.319E-07 0.000E+00

     total cpu time spent up to now is       14.0 secs

     total energy              =    -264.78000774 Ry
     Harris-Foulkes estimate   =    -264.78000774 Ry
     estimated scf accuracy    <          5.5E-11 Ry

     iteration # 49     ecut=    50.00 Ry     beta=0.60
     Davidson diagonalization with overlap
     ethr =  1.37E-13,  avg # of iterations =  2.5

     negative rho (up, down):  6.319E-07 0.000E+00

     total cpu time spent up to now is       14.2 secs

     End of self-consistent calculation

          k = 0.0625 0.0625 0.0625 (  2436 PWs)   bands (ev):

   -44.6652 -21.2626 -21.2623 -21.2623 -13.7623  -5.7330  -5.0328  -5.0328
     1.2135   1.2135   1.3037   8.5502   8.6816   8.6816   9.5248   9.5248
     9.7973  10.6266  10.8210  10.8210  12.9796  13.0204  13.0204  15.6341

          k = 0.0625 0.0625 0.1875 (  2432 PWs)   bands (ev):

   -44.6647 -21.2829 -21.2616 -21.2614 -13.7191  -5.7809  -5.0186  -4.9801
     1.2530   1.2572   1.4708   8.0530   8.5189   8.5568   9.1330   9.2286
     9.6988  10.0447  10.6050  10.6113  13.0457  13.5737  13.5749  15.6457

          k = 0.0625 0.0625 0.3125 (  2416 PWs)   bands (ev):

   -44.6641 -21.3116 -21.2603 -21.2602 -13.6562  -5.9259  -4.9983  -4.8071
     1.3207   1.3620   1.6502   7.3451   8.2528   8.3009   8.8139   8.8617
     9.4622   9.6155  10.3395  10.3704  13.1093  14.2816  14.2892  15.6506

          k = 0.0625 0.0625 0.4375 (  2417 PWs)   bands (ev):

   -44.6637 -21.3317 -21.2594 -21.2593 -13.6109  -6.0524  -4.9838  -4.6453
     1.3669   1.4588   1.7547   6.8503   8.0738   8.1064   8.4666   8.7128
     9.3194   9.5168  10.1422  10.2217  13.1553  14.7591  14.7623  15.6504

          k = 0.0625 0.1875 0.1875 (  2420 PWs)   bands (ev):

   -44.6643 -21.2825 -21.2811 -21.2606 -13.6801  -5.7545  -5.0055  -4.9694
     1.2085   1.2893   1.6138   7.7457   8.2454   8.4466   8.7236   8.9672
     9.6168   9.8795  10.3567  10.5372  13.5397  13.6742  13.8634  16.0166

          k = 0.0625 0.1875 0.3125 (  2420 PWs)   bands (ev):

   -44.6637 -21.3102 -21.2802 -21.2594 -13.6242  -5.8078  -4.9746  -4.8591
     1.2360   1.3644   1.6842   7.2209   7.9148   8.1360   8.3685   8.7302
     9.3903   9.8448  10.0730  10.4160  13.6488  14.3107  14.3922  16.1152

          k = 0.0625 0.1875 0.4375 (  2420 PWs)   bands (ev):

   -44.6633 -21.3302 -21.2792 -21.2585 -13.5838  -5.8895  -4.9502  -4.7267
     1.2692   1.4957   1.6341   6.7917   7.6898   7.9486   8.1059   8.6463
     9.4351   9.7284   9.9409  10.2305  13.6880  14.7729  14.8176  16.1314

          k = 0.0625 0.3125 0.3125 (  2420 PWs)   bands (ev):

   -44.6631 -21.3090 -21.3076 -21.2582 -13.5779  -5.6797  -4.9636  -4.8599
     1.1974   1.3605   1.6633   6.9996   7.5040   7.5318   8.2987   8.4223
     9.3550   9.7679  10.0324  10.6298  14.2748  14.3953  14.6927  16.3666

          k = 0.0625 0.3125 0.4375 (  2420 PWs)   bands (ev):

   -44.6627 -21.3280 -21.3069 -21.2574 -13.5445  -5.6400  -4.9244  -4.8314
     1.2061   1.3548   1.6211   6.7134   7.1050   7.3698   8.1012   8.3528
     9.4100   9.7713  10.0065  10.6835  14.3545  14.7916  15.0051  16.4344

          k = 0.0625 0.4375 0.4375 (  2427 PWs)   bands (ev):

   -44.6623 -21.3266 -21.3263 -21.2566 -13.5165  -5.4441  -4.9318  -4.8935
     1.1899   1.2267   1.6386   6.5702   6.7849   6.9828   8.0959   8.1056
     9.2302  10.0663  10.1736  10.8754  14.7927  14.8127  15.2216  16.5229

          k = 0.1875 0.1875 0.1875 (  2415 PWs)   bands (ev):

   -44.6639 -21.2819 -21.2802 -21.2802 -13.6447  -5.6866  -4.9777  -4.9777
     1.1598   1.1598   1.7814   7.4498   8.1770   8.1770   8.7013   8.7013
     9.0973  10.1057  10.3536  10.3536  13.9055  13.9451  13.9451  16.8451

          k = 0.1875 0.1875 0.3125 (  2416 PWs)   bands (ev):

   -44.6633 -21.3090 -21.2797 -21.2789 -13.5939  -5.6769  -4.9376  -4.8912
     1.0874   1.1789   1.7916   7.0922   7.7101   8.0718   8.3384   8.5621
     8.9532  10.0799  10.1669  10.3198  14.0159  14.4373  14.4807  16.8355

          k = 0.1875 0.1875 0.4375 (  2426 PWs)   bands (ev):

   -44.6629 -21.3288 -21.2786 -21.2779 -13.5575  -5.7233  -4.9086  -4.7667
     1.0337   1.3286   1.6450   6.7558   7.4933   7.9909   8.0208   8.5150
     9.1026   9.9120  10.0968  10.1933  14.0702  14.8519  14.8868  16.8201

          k = 0.1875 0.3125 0.3125 (  2419 PWs)   bands (ev):

   -44.6627 -21.3078 -21.3066 -21.2779 -13.5506  -5.5256  -4.9167  -4.8625
     1.0000   1.0235   1.6972   6.9564   7.4851   7.6129   8.2715   8.4475
     8.7254  10.0073  10.2622  10.5399  14.5163  14.5746  14.7792  17.2430

          k = 0.1875 0.3125 0.4375 (  2418 PWs)   bands (ev):

   -44.6623 -21.3268 -21.3059 -21.2770 -13.5193  -5.4685  -4.8700  -4.8165
     0.8967   1.0843   1.4956   6.7147   7.3063   7.4302   8.1010   8.4524
     8.7697  10.0095  10.2144  10.6459  14.6032  14.9391  15.0843  17.2937

          k = 0.1875 0.4375 0.4375 (  2408 PWs)   bands (ev):

   -44.6619 -21.3254 -21.3252 -21.2761 -13.4917  -5.2661  -4.8714  -4.8401
     0.9089   0.9313   1.2788   6.5829   6.9854   7.3218   8.2209   8.3244
     8.5426  10.2177  10.3138  10.8826  14.9824  14.9959  15.3039  17.3783

          k = 0.3125 0.3125 0.3125 (  2416 PWs)   bands (ev):

   -44.6621 -21.3065 -21.3052 -21.3052 -13.5112  -5.3199  -4.8475  -4.8475
     0.7837   0.7837   1.4568   6.9602   7.4711   7.4711   7.8936   8.5001
     8.5001  10.3605  10.3605  10.5770  14.8890  14.8890  14.9139  18.2566

          k = 0.3125 0.3125 0.4375 (  2409 PWs)   bands (ev):

   -44.6617 -21.3250 -21.3048 -21.3042 -13.4829  -5.2075  -4.7980  -4.7963
     0.6178   0.7756   1.1556   6.7048   7.3441   7.4677   7.7717   8.5454
     8.5795  10.3039  10.5466  10.6864  14.9808  15.1817  15.2082  18.1920

          k = 0.3125 0.4375 0.4375 (  2410 PWs)   bands (ev):

   -44.6613 -21.3239 -21.3237 -21.3035 -13.4569  -4.9990  -4.7807  -4.7626
     0.5376   0.5865   0.8142   6.5682   6.9907   7.4526   8.0117   8.5355
     8.5724  10.5541  10.6091  10.9015  15.2752  15.2776  15.4243  18.2135

          k = 0.4375 0.4375 0.4375 (  2416 PWs)   bands (ev):

   -44.6609 -21.3228 -21.3226 -21.3226 -13.4321  -4.7914  -4.7123  -4.7123
     0.3537   0.3537   0.4670   6.4438   6.9953   6.9953   8.4536   8.6239
     8.6239  10.8697  10.8697  10.9395  15.5118  15.5118  15.5129  18.2399

     highest occupied, lowest unoccupied level (ev):    10.9395   12.9796

!    total energy              =    -264.78000774 Ry
     Harris-Foulkes estimate   =    -264.78000774 Ry
     estimated scf accuracy    <          9.4E-13 Ry

     The total energy is the sum of the following terms:

     one-electron contribution =     -68.19494597 Ry
     hartree contribution      =      58.13305318 Ry
     xc contribution           =     -42.80345232 Ry
     ewald contribution        =    -211.91466263 Ry

     convergence has been achieved in  49 iterations

     Forces acting on atoms (cartesian axes, Ry/au):

     atom    1 type  3   force =     0.00000000    0.00000000    0.00000000
     atom    2 type  2   force =     0.00000000    0.00000000    0.00000000
     atom    3 type  1   force =     0.00000000    0.00000000    0.00000000
     atom    4 type  1   force =     0.00000000    0.00000000    0.00000000
     atom    5 type  1   force =     0.00000000    0.00000000    0.00000000

     Total force =     0.000000     Total SCF correction =     0.000000


     Computing stress (Cartesian axis) and pressure

          total   stress  (Ry/bohr**3)                   (kbar)     P=   17.90
   0.00012165   0.00000000   0.00000000         17.90      0.00      0.00
   0.00000000   0.00012165   0.00000000          0.00     17.90      0.00
   0.00000000   0.00000000   0.00012165          0.00      0.00     17.90


     Writing output data file bto.save
 
     init_run     :      0.13s CPU      0.15s WALL (       1 calls)
     electrons    :     13.46s CPU     13.89s WALL (       1 calls)
     forces       :      0.04s CPU      0.04s WALL (       1 calls)
     stress       :      0.07s CPU      0.07s WALL (       1 calls)

     Called by init_run:
     wfcinit      :      0.06s CPU      0.06s WALL (       1 calls)
     potinit      :      0.01s CPU      0.01s WALL (       1 calls)

     Called by electrons:
     c_bands      :     11.38s CPU     11.74s WALL (      49 calls)
     sum_band     :      1.65s CPU      1.70s WALL (      49 calls)
     v_of_rho     :      0.02s CPU      0.03s WALL (      50 calls)
     newd         :      0.31s CPU      0.31s WALL (      50 calls)
     mix_rho      :      0.04s CPU      0.04s WALL (      49 calls)

     Called by c_bands:
     init_us_2    :      0.06s CPU      0.10s WALL (    2020 calls)
     cegterg      :     10.81s CPU     11.17s WALL (     980 calls)

     Called by sum_band:
     sum_band:bec :      0.00s CPU      0.01s WALL (     980 calls)
     addusdens    :      0.35s CPU      0.35s WALL (      49 calls)

     Called by *egterg:
     h_psi        :      5.83s CPU      6.10s WALL (    3683 calls)
     s_psi        :      0.14s CPU      0.12s WALL (    3683 calls)
     g_psi        :      0.01s CPU      0.02s WALL (    2683 calls)
     cdiaghg      :      3.47s CPU      3.49s WALL (    3663 calls)

     Called by h_psi:
     h_psi:pot    :      5.82s CPU      6.09s WALL (    3683 calls)
     h_psi:calbec :      0.37s CPU      0.33s WALL (    3683 calls)
     vloc_psi     :      5.35s CPU      5.60s WALL (    3683 calls)
     add_vuspsi   :      0.10s CPU      0.14s WALL (    3683 calls)

     General routines
     calbec       :      0.51s CPU      0.46s WALL (    4763 calls)
     fft          :      0.05s CPU      0.06s WALL (     451 calls)
     ffts         :      0.01s CPU      0.01s WALL (      99 calls)
     fftw         :      5.96s CPU      6.18s WALL (  146468 calls)
     interpolate  :      0.02s CPU      0.02s WALL (      99 calls)
     davcio       :      0.00s CPU      0.01s WALL (      20 calls)
 
     Parallel routines
     fft_scatter  :      3.46s CPU      3.54s WALL (  147018 calls)
 
     PWSCF        :    13.88s CPU        14.45s WALL

 
   This run was terminated on:   0:13:28  31Dec2017            

=------------------------------------------------------------------------------=
   JOB DONE.
=------------------------------------------------------------------------------=
