
     Program PWSCF v.6.1 (svn rev. 13369) starts on  6Jan2018 at 18:21:11 

     This program is part of the open-source Quantum ESPRESSO suite
     for quantum simulation of materials; please cite
         "P. Giannozzi et al., J. Phys.:Condens. Matter 21 395502 (2009);
          URL http://www.quantum-espresso.org", 
     in publications or presentations arising from this work. More details at
     http://www.quantum-espresso.org/quote

     Parallel version (MPI), running on    28 processors
     R & G space division:  proc/nbgrp/npool/nimage =      28
     Waiting for input...
     Reading input from standard input

     Current dimensions of program PWSCF are:
     Max number of different atomic species (ntypx) = 10
     Max number of k-points (npk) =  40000
     Max angular momentum in pseudopotentials (lmaxx) =  3
               file O.pbe-rrkjus.UPF: wavefunction(s)  2S renormalized

     Subspace diagonalization in iterative solution of the eigenvalue problem:
     a serial algorithm will be used

 
     Parallelization info
     --------------------
     sticks:   dense  smooth     PW     G-vecs:    dense   smooth      PW
     Min         131      65     18                 5913     2089     309
     Max         132      66     20                 5918     2092     311
     Sum        3687    1843    519               165629    58557    8683
 

     Title: 
     cubic BaTiO3 scf xc=PBE                                                    


     bravais-lattice index     =            0
     lattice parameter (alat)  =       7.4000  a.u.
     unit-cell volume          =     433.3637 (a.u.)^3
     number of atoms/cell      =            5
     number of atomic types    =            3
     number of electrons       =        40.00
     number of Kohn-Sham states=           24
     kinetic-energy cutoff     =     100.0000  Ry
     charge density cutoff     =     800.0000  Ry
     convergence threshold     =      1.0E-12
     mixing beta               =       0.6000
     number of iterations used =            8  plain     mixing
     Exchange-correlation      =  SLA  PW   PBE  PBE ( 1  4  3  4 0 0)

     celldm(1)=   7.400000  celldm(2)=   0.000000  celldm(3)=   0.000000
     celldm(4)=   0.000000  celldm(5)=   0.000000  celldm(6)=   0.000000

     crystal axes: (cart. coord. in units of alat)
               a(1) = (   1.045488   0.000000   0.000000 )  
               a(2) = (   0.000000   1.011391   0.000000 )  
               a(3) = (   0.000000   0.000000   1.011391 )  

     reciprocal axes: (cart. coord. in units 2 pi/alat)
               b(1) = (  0.956491  0.000000  0.000000 )  
               b(2) = (  0.000000  0.988737  0.000000 )  
               b(3) = (  0.000000  0.000000  0.988737 )  


     PseudoPot. # 1 for O  read from file:
     ../../PSP_DIR/O.pbe-rrkjus.UPF
     MD5 check sum: 390ba29e75625707450f3bd3f0eb6be9
     Pseudo is Ultrasoft, Zval =  6.0
     Generated by new atomic code, or converted to UPF format
     Using radial grid of 1269 points,  4 beta functions with: 
                l(1) =   0
                l(2) =   0
                l(3) =   1
                l(4) =   1
     Q(r) pseudized with 0 coefficients 


     PseudoPot. # 2 for Ti read from file:
     ../../PSP_DIR/Ti.pbe-sp-van_ak.UPF
     MD5 check sum: 8e4df49b7f0d34bbd5052bf3f5ea0213
     Pseudo is Ultrasoft, Zval = 12.0
     Generated by new atomic code, or converted to UPF format
     Using radial grid of  851 points,  6 beta functions with: 
                l(1) =   0
                l(2) =   0
                l(3) =   1
                l(4) =   1
                l(5) =   2
                l(6) =   2
     Q(r) pseudized with  8 coefficients,  rinner =    1.000   1.000   1.000
                                                       1.000   1.000

     PseudoPot. # 3 for Ba read from file:
     ../../PSP_DIR/Ba.pbe-nsp-van.UPF
     MD5 check sum: a011de417d3466d8e94df216395bc359
     Pseudo is Ultrasoft + core correction, Zval = 10.0
     Generated by new atomic code, or converted to UPF format
     Using radial grid of  907 points,  6 beta functions with: 
                l(1) =   0
                l(2) =   0
                l(3) =   1
                l(4) =   1
                l(5) =   2
                l(6) =   2
     Q(r) pseudized with  6 coefficients,  rinner =    1.200   1.200   1.200
                                                       1.200   1.200

     atomic species   valence    mass     pseudopotential
        O              6.00    15.99000     O ( 1.00)
        Ti            12.00    47.88000     Ti( 1.00)
        Ba            10.00   137.33000     Ba( 1.00)

      8 Sym. Ops. (no inversion) found



   Cartesian axes

     site n.     atom                  positions (alat units)
         1           Ba  tau(   1) = (  -0.0243650   0.0000000   0.0000000  )
         2           Ti  tau(   2) = (   0.4894495   0.5056957   0.5056957  )
         3           O   tau(   3) = (   0.0228482   0.5056957   0.5056957  )
         4           O   tau(   4) = (   0.5349219   0.0000000   0.5056957  )
         5           O   tau(   5) = (   0.5349219   0.5056957   0.0000000  )

     number of k points=    18
                       cart. coord. in units 2pi/alat
        k(    1) = (   0.0797076   0.0823947   0.0823947), wk =   0.0740741
        k(    2) = (   0.0797076   0.0823947   0.2471842), wk =   0.1481481
        k(    3) = (   0.0797076   0.0823947   0.4119737), wk =   0.1481481
        k(    4) = (   0.0797076   0.2471842   0.2471842), wk =   0.0740741
        k(    5) = (   0.0797076   0.2471842   0.4119737), wk =   0.1481481
        k(    6) = (   0.0797076   0.4119737   0.4119737), wk =   0.0740741
        k(    7) = (   0.2391229   0.0823947   0.0823947), wk =   0.0740741
        k(    8) = (   0.2391229   0.0823947   0.2471842), wk =   0.1481481
        k(    9) = (   0.2391229   0.0823947   0.4119737), wk =   0.1481481
        k(   10) = (   0.2391229   0.2471842   0.2471842), wk =   0.0740741
        k(   11) = (   0.2391229   0.2471842   0.4119737), wk =   0.1481481
        k(   12) = (   0.2391229   0.4119737   0.4119737), wk =   0.0740741
        k(   13) = (   0.3985381   0.0823947   0.0823947), wk =   0.0740741
        k(   14) = (   0.3985381   0.0823947   0.2471842), wk =   0.1481481
        k(   15) = (   0.3985381   0.0823947   0.4119737), wk =   0.1481481
        k(   16) = (   0.3985381   0.2471842   0.2471842), wk =   0.0740741
        k(   17) = (   0.3985381   0.2471842   0.4119737), wk =   0.1481481
        k(   18) = (   0.3985381   0.4119737   0.4119737), wk =   0.0740741

     Dense  grid:   165629 G-vectors     FFT dimensions: (  72,  72,  72)

     Smooth grid:    58557 G-vectors     FFT dimensions: (  50,  48,  48)

     Estimated max dynamical RAM per process >       6.71MB

     Estimated total allocated dynamical RAM >     187.92MB

     Initial potential from superposition of free atoms

     starting charge   38.98495, renormalised to   40.00000
     Starting wfc are   35 randomized atomic wfcs

     total cpu time spent up to now is        1.6 secs

     per-process dynamical memory:    51.0 Mb

     Self-consistent Calculation

     iteration #  1     ecut=   100.00 Ry     beta=0.60
     Davidson diagonalization with overlap
     ethr =  1.00E-02,  avg # of iterations =  2.3

     total cpu time spent up to now is        2.1 secs

     total energy              =    -302.92027201 Ry
     Harris-Foulkes estimate   =    -303.47789730 Ry
     estimated scf accuracy    <       0.78256221 Ry

     iteration #  2     ecut=   100.00 Ry     beta=0.60
     Davidson diagonalization with overlap
     ethr =  1.96E-03,  avg # of iterations =  4.0

     total cpu time spent up to now is        2.7 secs

     total energy              =    -302.33122936 Ry
     Harris-Foulkes estimate   =    -303.87124583 Ry
     estimated scf accuracy    <       6.05086756 Ry

     iteration #  3     ecut=   100.00 Ry     beta=0.60
     Davidson diagonalization with overlap
     ethr =  1.96E-03,  avg # of iterations =  3.3

     total cpu time spent up to now is        3.3 secs

     total energy              =    -303.31811361 Ry
     Harris-Foulkes estimate   =    -303.36504603 Ry
     estimated scf accuracy    <       0.17454043 Ry

     iteration #  4     ecut=   100.00 Ry     beta=0.60
     Davidson diagonalization with overlap
     ethr =  4.36E-04,  avg # of iterations =  1.3

     total cpu time spent up to now is        3.6 secs

     total energy              =    -303.30885623 Ry
     Harris-Foulkes estimate   =    -303.32755893 Ry
     estimated scf accuracy    <       0.06250628 Ry

     iteration #  5     ecut=   100.00 Ry     beta=0.60
     Davidson diagonalization with overlap
     ethr =  1.56E-04,  avg # of iterations =  3.1

     total cpu time spent up to now is        4.1 secs

     total energy              =    -303.31897889 Ry
     Harris-Foulkes estimate   =    -303.31985242 Ry
     estimated scf accuracy    <       0.00248207 Ry

     iteration #  6     ecut=   100.00 Ry     beta=0.60
     Davidson diagonalization with overlap
     ethr =  6.21E-06,  avg # of iterations =  3.6

     total cpu time spent up to now is        4.6 secs

     total energy              =    -303.31967605 Ry
     Harris-Foulkes estimate   =    -303.31980908 Ry
     estimated scf accuracy    <       0.00057468 Ry

     iteration #  7     ecut=   100.00 Ry     beta=0.60
     Davidson diagonalization with overlap
     ethr =  1.44E-06,  avg # of iterations =  1.9

     total cpu time spent up to now is        5.0 secs

     total energy              =    -303.31966747 Ry
     Harris-Foulkes estimate   =    -303.31972668 Ry
     estimated scf accuracy    <       0.00015341 Ry

     iteration #  8     ecut=   100.00 Ry     beta=0.60
     Davidson diagonalization with overlap
     ethr =  3.84E-07,  avg # of iterations =  2.7

     total cpu time spent up to now is        5.5 secs

     total energy              =    -303.31969838 Ry
     Harris-Foulkes estimate   =    -303.31969880 Ry
     estimated scf accuracy    <       0.00000321 Ry

     iteration #  9     ecut=   100.00 Ry     beta=0.60
     Davidson diagonalization with overlap
     ethr =  8.02E-09,  avg # of iterations =  3.4

     total cpu time spent up to now is        6.0 secs

     total energy              =    -303.31969951 Ry
     Harris-Foulkes estimate   =    -303.31969994 Ry
     estimated scf accuracy    <       0.00000093 Ry

     iteration # 10     ecut=   100.00 Ry     beta=0.60
     Davidson diagonalization with overlap
     ethr =  2.31E-09,  avg # of iterations =  2.9

     total cpu time spent up to now is        6.5 secs

     total energy              =    -303.31969967 Ry
     Harris-Foulkes estimate   =    -303.31969968 Ry
     estimated scf accuracy    <       0.00000001 Ry

     iteration # 11     ecut=   100.00 Ry     beta=0.60
     Davidson diagonalization with overlap
     ethr =  3.41E-11,  avg # of iterations =  3.2

     total cpu time spent up to now is        7.0 secs

     total energy              =    -303.31969968 Ry
     Harris-Foulkes estimate   =    -303.31969968 Ry
     estimated scf accuracy    <          6.9E-10 Ry

     iteration # 12     ecut=   100.00 Ry     beta=0.60
     Davidson diagonalization with overlap
     ethr =  1.73E-12,  avg # of iterations =  2.7

     total cpu time spent up to now is        7.5 secs

     total energy              =    -303.31969968 Ry
     Harris-Foulkes estimate   =    -303.31969968 Ry
     estimated scf accuracy    <          1.4E-10 Ry

     iteration # 13     ecut=   100.00 Ry     beta=0.60
     Davidson diagonalization with overlap
     ethr =  3.41E-13,  avg # of iterations =  2.7

     total cpu time spent up to now is        7.9 secs

     total energy              =    -303.31969968 Ry
     Harris-Foulkes estimate   =    -303.31969968 Ry
     estimated scf accuracy    <          2.8E-12 Ry

     iteration # 14     ecut=   100.00 Ry     beta=0.60
     Davidson diagonalization with overlap
     ethr =  1.00E-13,  avg # of iterations =  1.2

     total cpu time spent up to now is        8.3 secs

     End of self-consistent calculation

          k = 0.0797 0.0824 0.0824 (  7301 PWs)   bands (ev):

   -46.1305 -22.4600 -22.3681 -22.3679 -14.3281  -6.5651  -5.9559  -5.8551
     0.4593   0.4787   0.5923   7.6581   7.8097   7.8516   8.4818   8.5037
     8.9488   9.3094   9.7549   9.8226  12.4948  12.8228  12.8399  14.8903

          k = 0.0797 0.0824 0.2472 (  7306 PWs)   bands (ev):

   -46.1299 -22.4589 -22.3933 -22.3669 -14.2741  -6.6067  -5.9230  -5.7894
     0.4950   0.5252   0.7442   7.0137   7.5897   7.7318   8.1326   8.2142
     8.7430   8.9016   9.4842   9.5692  12.8371  13.2081  13.2473  14.9235

          k = 0.0797 0.0824 0.4120 (  7321 PWs)   bands (ev):

   -46.1294 -22.4578 -22.4185 -22.3659 -14.2187  -6.7208  -5.8966  -5.6269
     0.5502   0.6564   0.7876   6.3534   7.4482   7.5524   7.6911   8.0342
     8.6694   8.7495   9.1025   9.3013  12.8795  13.8399  13.8936  14.8817

          k = 0.0797 0.2472 0.2472 (  7324 PWs)   bands (ev):

   -46.1294 -22.4579 -22.3924 -22.3917 -14.2282  -6.5243  -5.8484  -5.8208
     0.3928   0.5115   0.8201   6.7331   7.2078   7.4831   7.7762   8.0121
     8.2245   9.1493   9.3158   9.7968  13.1370  13.3706  13.5720  15.2258

          k = 0.0797 0.2472 0.4120 (  7337 PWs)   bands (ev):

   -46.1289 -22.4569 -22.4170 -22.3908 -14.1812  -6.5178  -5.8335  -5.7039
     0.3983   0.5295   0.7496   6.2664   6.9139   7.1241   7.5304   7.8331
     8.3858   8.9956   9.2061   9.8169  13.2687  13.9148  14.0373  15.1855

          k = 0.0797 0.4120 0.4120 (  7324 PWs)   bands (ev):

   -46.1284 -22.4558 -22.4156 -22.4154 -14.1430  -6.3112  -5.7833  -5.7629
     0.3045   0.3599   0.7279   6.0713   6.5024   6.5675   7.5341   7.5824
     8.3366   9.1919   9.3157  10.1889  13.8875  13.9766  14.3352  15.1067

          k = 0.2391 0.0824 0.0824 (  7302 PWs)   bands (ev):

   -46.1301 -22.4775 -22.3673 -22.3672 -14.2859  -6.5969  -5.9189  -5.8441
     0.5115   0.5318   0.7467   6.9982   7.6019   7.7078   8.1570   8.2075
     8.8853   8.9858   9.5568   9.6765  12.5317  13.3212  13.3518  14.8841

          k = 0.2391 0.0824 0.2472 (  7308 PWs)   bands (ev):

   -46.1296 -22.4762 -22.3924 -22.3663 -14.2393  -6.5108  -5.9440  -5.7933
     0.4361   0.5324   0.8292   6.7697   7.0761   7.5361   7.7981   8.0202
     8.6089   9.1031   9.3021   9.6317  13.2090  13.3962  13.5291  15.3571

          k = 0.2391 0.0824 0.4120 (  7321 PWs)   bands (ev):

   -46.1291 -22.4748 -22.4174 -22.3653 -14.1915  -6.5206  -5.9016  -5.7009
     0.4579   0.5562   0.7853   6.2845   6.8651   7.1747   7.5363   7.9450
     8.5205   9.0162   9.1446   9.6048  13.3971  13.8775  14.0073  15.4326

          k = 0.2391 0.2472 0.2472 (  7330 PWs)   bands (ev):

   -46.1291 -22.4749 -22.3915 -22.3909 -14.1980  -6.3763  -5.8933  -5.7849
     0.2730   0.3285   0.8678   6.5531   7.1061   7.1813   7.7553   7.8873
     7.9199   9.3928   9.4061   9.6488  13.5418  13.6252  13.6860  16.2531

          k = 0.2391 0.2472 0.4120 (  7328 PWs)   bands (ev):

   -46.1286 -22.4737 -22.4160 -22.3900 -14.1559  -6.3173  -5.8197  -5.7139
     0.1827   0.2783   0.6689   6.2284   6.9058   7.1275   7.3140   7.8136
     7.9917   9.2566   9.5063   9.7516  13.6819  14.0618  14.1218  16.1979

          k = 0.2391 0.4120 0.4120 (  7332 PWs)   bands (ev):

   -46.1281 -22.4725 -22.4147 -22.4145 -14.1197  -6.1179  -5.7282  -5.7226
     0.0497   0.0569   0.3927   6.0491   6.5732   7.0434   7.3088   7.7743
     7.8366   9.4543   9.5464  10.1645  14.1481  14.1767  14.4054  16.1899

          k = 0.3985 0.0824 0.0824 (  7306 PWs)   bands (ev):

   -46.1298 -22.4948 -22.3666 -22.3665 -14.2429  -6.6915  -5.8330  -5.8052
     0.5446   0.6509   0.8491   6.3714   7.4157   7.5486   7.7855   8.0360
     8.7412   8.8637   9.3751   9.5490  12.5661  13.8159  13.8607  14.8815

          k = 0.3985 0.0824 0.2472 (  7313 PWs)   bands (ev):

   -46.1293 -22.4933 -22.3915 -22.3656 -14.2038  -6.4782  -5.9013  -5.7878
     0.4246   0.6105   0.7847   6.3332   6.7674   7.2827   7.5870   7.8585
     8.7405   8.9985   9.2986   9.6020  13.2694  13.8599  13.9250  15.4320

          k = 0.3985 0.0824 0.4120 (  7312 PWs)   bands (ev):

   -46.1288 -22.4916 -22.4162 -22.3647 -14.1639  -6.2727  -5.9572  -5.7656
     0.3790   0.4686   0.7718   6.1562   6.4307   6.6936   7.4913   7.7422
     8.4448   9.2126   9.3607   9.9205  13.8864  13.9229  14.2126  15.5831

          k = 0.3985 0.2472 0.2472 (  7317 PWs)   bands (ev):

   -46.1288 -22.4918 -22.3906 -22.3901 -14.1674  -6.2594  -5.9012  -5.7481
     0.1540   0.3552   0.6867   6.3183   6.7584   7.1674   7.3674   7.8891
     8.0832   9.4715   9.5159   9.5558  13.6912  13.9716  14.0387  16.4308

          k = 0.3985 0.2472 0.4120 (  7320 PWs)   bands (ev):

   -46.1283 -22.4904 -22.4150 -22.3893 -14.1303  -6.0601  -5.8682  -5.7121
     0.0572   0.1344   0.4109   6.1126   6.6165   7.0522   7.2572   7.8110
     7.9116   9.5063   9.7239   9.8862  14.0782  14.1676  14.3156  16.6486

          k = 0.3985 0.4120 0.4120 (  7317 PWs)   bands (ev):

   -46.1278 -22.4891 -22.4138 -22.4137 -14.0962  -5.8939  -5.7140  -5.6588
    -0.1925  -0.1490   0.0248   5.9375   6.5793   6.6502   7.6224   7.8553
     7.8934   9.8265   9.8718  10.1381  14.4053  14.4082  14.4890  16.8700

     highest occupied, lowest unoccupied level (ev):    10.1889   12.4948

!    total energy              =    -303.31969968 Ry
     Harris-Foulkes estimate   =    -303.31969968 Ry
     estimated scf accuracy    <          8.4E-14 Ry

     The total energy is the sum of the following terms:

     one-electron contribution =     -72.92390658 Ry
     hartree contribution      =      60.34893862 Ry
     xc contribution           =     -84.18217436 Ry
     ewald contribution        =    -206.56255736 Ry

     convergence has been achieved in  14 iterations

     Forces acting on atoms (cartesian axes, Ry/au):

     atom    1 type  3   force =     0.00030550    0.00000000    0.00000000
     atom    2 type  2   force =    -0.00035962    0.00000000    0.00000000
     atom    3 type  1   force =     0.00004718    0.00000000    0.00000000
     atom    4 type  1   force =     0.00000347    0.00000000    0.00000000
     atom    5 type  1   force =     0.00000347    0.00000000    0.00000000

     Total force =     0.000474     Total SCF correction =     0.000000


     Computing stress (Cartesian axis) and pressure

          total   stress  (Ry/bohr**3)                   (kbar)     P=   -0.35
  -0.00000382   0.00000000   0.00000000         -0.56      0.00      0.00
   0.00000000  -0.00000163   0.00000000          0.00     -0.24      0.00
   0.00000000   0.00000000  -0.00000163          0.00      0.00     -0.24


     Writing output data file bto.save
 
     init_run     :      0.46s CPU      1.01s WALL (       1 calls)
     electrons    :      6.51s CPU      6.74s WALL (       1 calls)
     forces       :      0.17s CPU      0.19s WALL (       1 calls)
     stress       :      0.40s CPU      0.42s WALL (       1 calls)

     Called by init_run:
     wfcinit      :      0.15s CPU      0.31s WALL (       1 calls)
     potinit      :      0.07s CPU      0.10s WALL (       1 calls)

     Called by electrons:
     c_bands      :      4.54s CPU      4.67s WALL (      14 calls)
     sum_band     :      1.28s CPU      1.32s WALL (      14 calls)
     v_of_rho     :      0.12s CPU      0.14s WALL (      15 calls)
     newd         :      0.57s CPU      0.58s WALL (      15 calls)
     mix_rho      :      0.02s CPU      0.03s WALL (      14 calls)

     Called by c_bands:
     init_us_2    :      0.06s CPU      0.07s WALL (     558 calls)
     cegterg      :      4.23s CPU      4.36s WALL (     252 calls)

     Called by sum_band:
     sum_band:bec :      0.00s CPU      0.00s WALL (     252 calls)
     addusdens    :      0.64s CPU      0.65s WALL (      14 calls)

     Called by *egterg:
     h_psi        :      2.72s CPU      2.81s WALL (     964 calls)
     s_psi        :      0.08s CPU      0.08s WALL (     964 calls)
     g_psi        :      0.01s CPU      0.01s WALL (     694 calls)
     cdiaghg      :      0.95s CPU      1.10s WALL (     946 calls)

     Called by h_psi:
     h_psi:pot    :      2.71s CPU      2.80s WALL (     964 calls)
     h_psi:calbec :      0.17s CPU      0.15s WALL (     964 calls)
     vloc_psi     :      2.47s CPU      2.55s WALL (     964 calls)
     add_vuspsi   :      0.07s CPU      0.08s WALL (     964 calls)

     General routines
     calbec       :      0.25s CPU      0.22s WALL (    1306 calls)
     fft          :      0.12s CPU      0.27s WALL (     261 calls)
     ffts         :      0.00s CPU      0.01s WALL (      29 calls)
     fftw         :      2.63s CPU      2.71s WALL (   37910 calls)
     interpolate  :      0.02s CPU      0.02s WALL (      29 calls)
     davcio       :      0.00s CPU      0.06s WALL (      18 calls)
 
     Parallel routines
     fft_scatter  :      1.43s CPU      1.45s WALL (   38200 calls)
 
     PWSCF        :     7.73s CPU         9.24s WALL

 
   This run was terminated on:  18:21:21   6Jan2018            

=------------------------------------------------------------------------------=
   JOB DONE.
=------------------------------------------------------------------------------=
