
     Program Q2R v.6.1 (svn rev. 13369) starts on 10Jan2018 at 10:44: 8 

     This program is part of the open-source Quantum ESPRESSO suite
     for quantum simulation of materials; please cite
         "P. Giannozzi et al., J. Phys.:Condens. Matter 21 395502 (2009);
          URL http://www.quantum-espresso.org", 
     in publications or presentations arising from this work. More details at
     http://www.quantum-espresso.org/quote

     Parallel version (MPI), running on     1 processors

     reading grid info from file bto.dyn0    
  reading force constants from file bto.dyn1
 macroscopic fields = T
   5.37133   0.00000   0.00000
   0.00000   6.18869   0.00000
   0.00000   0.00000   6.18869
  na=            1
   2.90285   0.00000   0.00000
   0.00000   2.64170   0.00000
   0.00000   0.00000   2.64170
  na=            2
   5.41798   0.00000   0.00000
   0.00000   6.91526   0.00000
   0.00000   0.00000   6.91526
  na=            3
  -4.39305   0.00000   0.00000
   0.00000  -1.99091   0.00000
   0.00000   0.00000  -1.99091
  na=            4
  -1.93948   0.00000   0.00000
   0.00000  -5.52865   0.00000
   0.00000   0.00000  -2.13630
  na=            5
  -1.93948   0.00000   0.00000
   0.00000  -2.13630   0.00000
   0.00000   0.00000  -5.52865
  nqs=            1
 q=   0.00000000  0.00000000  0.00000000
  reading force constants from file bto.dyn2
  nqs=            4
 q=   0.00000000  0.00000000  0.24718423
 q=   0.00000000  0.00000000 -0.24718423
 q=   0.00000000  0.24718423  0.00000000
 q=   0.00000000 -0.24718423  0.00000000
  reading force constants from file bto.dyn3
  nqs=            2
 q=   0.00000000  0.00000000 -0.49436847
 q=   0.00000000 -0.49436847  0.00000000
  reading force constants from file bto.dyn4
  nqs=            4
 q=   0.00000000  0.24718423  0.24718423
 q=   0.00000000 -0.24718423 -0.24718423
 q=   0.00000000  0.24718423 -0.24718423
 q=   0.00000000 -0.24718423  0.24718423
  reading force constants from file bto.dyn5
  nqs=            4
 q=   0.00000000  0.24718423 -0.49436847
 q=   0.00000000 -0.24718423  0.49436847
 q=   0.00000000 -0.49436847  0.24718423
 q=   0.00000000 -0.49436847 -0.24718423
  reading force constants from file bto.dyn6
  nqs=            1
 q=   0.00000000 -0.49436847 -0.49436847
  reading force constants from file bto.dyn7
  nqs=            2
 q=   0.23912287  0.00000000  0.00000000
 q=  -0.23912287  0.00000000  0.00000000
  reading force constants from file bto.dyn8
  nqs=            8
 q=   0.23912287  0.00000000  0.24718423
 q=  -0.23912287  0.00000000 -0.24718423
 q=   0.23912287  0.00000000 -0.24718423
 q=  -0.23912287  0.00000000  0.24718423
 q=   0.23912287  0.24718423  0.00000000
 q=  -0.23912287 -0.24718423  0.00000000
 q=   0.23912287 -0.24718423  0.00000000
 q=  -0.23912287  0.24718423  0.00000000
  reading force constants from file bto.dyn9
  nqs=            4
 q=   0.23912287  0.00000000 -0.49436847
 q=  -0.23912287  0.00000000  0.49436847
 q=   0.23912287 -0.49436847  0.00000000
 q=  -0.23912287  0.49436847  0.00000000
  reading force constants from file bto.dyn10
  nqs=            8
 q=   0.23912287  0.24718423  0.24718423
 q=  -0.23912287 -0.24718423 -0.24718423
 q=   0.23912287 -0.24718423 -0.24718423
 q=  -0.23912287  0.24718423  0.24718423
 q=   0.23912287  0.24718423 -0.24718423
 q=  -0.23912287 -0.24718423  0.24718423
 q=   0.23912287 -0.24718423  0.24718423
 q=  -0.23912287  0.24718423 -0.24718423
  reading force constants from file bto.dyn11
  nqs=            8
 q=   0.23912287  0.24718423 -0.49436847
 q=  -0.23912287 -0.24718423  0.49436847
 q=   0.23912287 -0.24718423  0.49436847
 q=  -0.23912287  0.24718423 -0.49436847
 q=   0.23912287 -0.49436847  0.24718423
 q=  -0.23912287  0.49436847 -0.24718423
 q=   0.23912287 -0.49436847 -0.24718423
 q=  -0.23912287  0.49436847  0.24718423
  reading force constants from file bto.dyn12
  nqs=            2
 q=   0.23912287 -0.49436847 -0.49436847
 q=  -0.23912287  0.49436847  0.49436847
  reading force constants from file bto.dyn13
  nqs=            1
 q=  -0.47824574  0.00000000  0.00000000
  reading force constants from file bto.dyn14
  nqs=            4
 q=  -0.47824574  0.00000000  0.24718423
 q=  -0.47824574  0.00000000 -0.24718423
 q=  -0.47824574  0.24718423  0.00000000
 q=  -0.47824574 -0.24718423  0.00000000
  reading force constants from file bto.dyn15
  nqs=            2
 q=  -0.47824574  0.00000000 -0.49436847
 q=  -0.47824574 -0.49436847  0.00000000
  reading force constants from file bto.dyn16
  nqs=            4
 q=  -0.47824574  0.24718423  0.24718423
 q=  -0.47824574 -0.24718423 -0.24718423
 q=  -0.47824574  0.24718423 -0.24718423
 q=  -0.47824574 -0.24718423  0.24718423
  reading force constants from file bto.dyn17
  nqs=            4
 q=  -0.47824574  0.24718423 -0.49436847
 q=  -0.47824574 -0.24718423  0.49436847
 q=  -0.47824574 -0.49436847  0.24718423
 q=  -0.47824574 -0.49436847 -0.24718423
  reading force constants from file bto.dyn18
  nqs=            1
 q=  -0.47824574 -0.49436847 -0.49436847

      q-space grid ok, #points =   64

      fft-check warning: sum of imaginary terms = 1.923324E-08
 
     Q2R          :     0.05s CPU         0.66s WALL

 
   This run was terminated on:  10:44: 8  10Jan2018            

=------------------------------------------------------------------------------=
   JOB DONE.
=------------------------------------------------------------------------------=
