
     Program PHONON v.6.1 (svn rev. 13369) starts on  7Jan2018 at  9:56: 3 

     This program is part of the open-source Quantum ESPRESSO suite
     for quantum simulation of materials; please cite
         "P. Giannozzi et al., J. Phys.:Condens. Matter 21 395502 (2009);
          URL http://www.quantum-espresso.org", 
     in publications or presentations arising from this work. More details at
     http://www.quantum-espresso.org/quote

     Parallel version (MPI), running on    28 processors
     R & G space division:  proc/nbgrp/npool/nimage =      28

     Reading data from directory:
     ./bto.save

   Info: using nr1, nr2, nr3 values from input

   Info: using nr1, nr2, nr3 values from input

     IMPORTANT: XC functional enforced from input :
     Exchange-correlation      =  SLA  PW   PBE  PBE ( 1  4  3  4 0 0)
     Any further DFT definition will be discarded
     Please, verify this is what you really want

               file O.pbe-rrkjus.UPF: wavefunction(s)  2S renormalized
 
     Parallelization info
     --------------------
     sticks:   dense  smooth     PW     G-vecs:    dense   smooth      PW
     Min         131      65     18                 5913     2089     309
     Max         132      66     20                 5918     2092     311
     Sum        3687    1843    519               165629    58557    8683
 


     Dynamical matrices for ( 4, 4, 4)  uniform grid of q-points
     (  18q-points):
       N         xq(1)         xq(2)         xq(3) 
       1   0.000000000   0.000000000   0.000000000
       2   0.000000000   0.000000000   0.247184234
       3   0.000000000   0.000000000  -0.494368469
       4   0.000000000   0.247184234   0.247184234
       5   0.000000000   0.247184234  -0.494368469
       6   0.000000000  -0.494368469  -0.494368469
       7   0.239122868   0.000000000   0.000000000
       8   0.239122868   0.000000000   0.247184234
       9   0.239122868   0.000000000  -0.494368469
      10   0.239122868   0.247184234   0.247184234
      11   0.239122868   0.247184234  -0.494368469
      12   0.239122868  -0.494368469  -0.494368469
      13  -0.478245736   0.000000000   0.000000000
      14  -0.478245736   0.000000000   0.247184234
      15  -0.478245736   0.000000000  -0.494368469
      16  -0.478245736   0.247184234   0.247184234
      17  -0.478245736   0.247184234  -0.494368469
      18  -0.478245736  -0.494368469  -0.494368469

     Calculation of q =    0.0000000   0.0000000   0.0000000

                                                                                

     bravais-lattice index     =            0
     lattice parameter (alat)  =       7.4000  a.u.
     unit-cell volume          =     433.3637 (a.u.)^3
     number of atoms/cell      =            5
     number of atomic types    =            3
     kinetic-energy cut-off    =     100.0000  Ry
     charge density cut-off    =     800.0000  Ry
     convergence threshold     =      1.0E-12
     beta                      =       0.7000
     number of iterations used =            4
     Exchange-correlation      =  SLA  PW   PBE  PBE ( 1  4  3  4 0 0)


     celldm(1)=    7.40000  celldm(2)=    0.00000  celldm(3)=    0.00000
     celldm(4)=    0.00000  celldm(5)=    0.00000  celldm(6)=    0.00000

     crystal axes: (cart. coord. in units of alat)
               a(1) = (  1.0455  0.0000  0.0000 )  
               a(2) = (  0.0000  1.0114  0.0000 )  
               a(3) = (  0.0000  0.0000  1.0114 )  

     reciprocal axes: (cart. coord. in units 2 pi/alat)
               b(1) = (  0.9565  0.0000  0.0000 )  
               b(2) = (  0.0000  0.9887  0.0000 )  
               b(3) = (  0.0000  0.0000  0.9887 )  


     Atoms inside the unit cell: 

     Cartesian axes

     site n.  atom      mass           positions (alat units)
        1     Ba 137.3300   tau(    1) = (   -0.02436    0.00000    0.00000  )
        2     Ti  47.8800   tau(    2) = (    0.48945    0.50570    0.50570  )
        3     O   15.9900   tau(    3) = (    0.02285    0.50570    0.50570  )
        4     O   15.9900   tau(    4) = (    0.53492    0.00000    0.50570  )
        5     O   15.9900   tau(    5) = (    0.53492    0.50570    0.00000  )

     Computing dynamical matrix for 
                    q = (   0.0000000   0.0000000   0.0000000 )
 
      9 Sym.Ops. (with q -> -q+G )


     G cutoff = 1109.6696  (   5915 G-vectors)     FFT grid: ( 72, 72, 72)
     G cutoff =  554.8348  (   2092 G-vectors)  smooth grid: ( 50, 48, 48)
     number of k points=    18

     PseudoPot. # 1 for O  read from file:
     ../../PSP_DIR/O.pbe-rrkjus.UPF
     MD5 check sum: 390ba29e75625707450f3bd3f0eb6be9
     Pseudo is Ultrasoft, Zval =  6.0
     Generated by new atomic code, or converted to UPF format
     Using radial grid of 1269 points,  4 beta functions with: 
                l(1) =   0
                l(2) =   0
                l(3) =   1
                l(4) =   1
     Q(r) pseudized with 0 coefficients 


     PseudoPot. # 2 for Ti read from file:
     ../../PSP_DIR/Ti.pbe-sp-van_ak.UPF
     MD5 check sum: 8e4df49b7f0d34bbd5052bf3f5ea0213
     Pseudo is Ultrasoft, Zval = 12.0
     Generated by new atomic code, or converted to UPF format
     Using radial grid of  851 points,  6 beta functions with: 
                l(1) =   0
                l(2) =   0
                l(3) =   1
                l(4) =   1
                l(5) =   2
                l(6) =   2
     Q(r) pseudized with  8 coefficients,  rinner =    1.000   1.000   1.000
                                                       1.000   1.000

     PseudoPot. # 3 for Ba read from file:
     ../../PSP_DIR/Ba.pbe-nsp-van.UPF
     MD5 check sum: a011de417d3466d8e94df216395bc359
     Pseudo is Ultrasoft + core correction, Zval = 10.0
     Generated by new atomic code, or converted to UPF format
     Using radial grid of  907 points,  6 beta functions with: 
                l(1) =   0
                l(2) =   0
                l(3) =   1
                l(4) =   1
                l(5) =   2
                l(6) =   2
     Q(r) pseudized with  6 coefficients,  rinner =    1.200   1.200   1.200
                                                       1.200   1.200

     Mode symmetry, C_4v (4mm)  point group:


     Electric field:
     Dielectric constant
     Born effective charges in two ways 


     Atomic displacements:
     There are  10 irreducible representations

     Representation     1      1 modes -A_1  G_1 D_1  To be done

     Representation     2      1 modes -A_1  G_1 D_1  To be done

     Representation     3      1 modes -A_1  G_1 D_1  To be done

     Representation     4      1 modes -A_1  G_1 D_1  To be done

     Representation     5      1 modes -B_1  G_3 D_2  To be done

     Representation     6      2 modes -E    G_5 D_5  To be done

     Representation     7      2 modes -E    G_5 D_5  To be done

     Representation     8      2 modes -E    G_5 D_5  To be done

     Representation     9      2 modes -E    G_5 D_5  To be done

     Representation    10      2 modes -E    G_5 D_5  To be done



     Alpha used in Ewald sum =   2.8000
     PHONON       :     3.55s CPU         5.65s WALL


     Electric Fields Calculation

      iter #   1 total cpu time :    20.1 secs   av.it.:   9.9
      thresh= 1.000E-02 alpha_mix =  0.700 |ddv_scf|^2 =  3.503E-08

      iter #   2 total cpu time :    26.6 secs   av.it.:  20.1
      thresh= 1.872E-05 alpha_mix =  0.700 |ddv_scf|^2 =  1.430E-07

      iter #   3 total cpu time :    31.5 secs   av.it.:  14.9
      thresh= 3.782E-05 alpha_mix =  0.700 |ddv_scf|^2 =  2.873E-09

      iter #   4 total cpu time :    37.6 secs   av.it.:  18.2
      thresh= 5.360E-06 alpha_mix =  0.700 |ddv_scf|^2 =  1.422E-09

      iter #   5 total cpu time :    43.2 secs   av.it.:  16.9
      thresh= 3.771E-06 alpha_mix =  0.700 |ddv_scf|^2 =  3.800E-11

      iter #   6 total cpu time :    49.2 secs   av.it.:  19.5
      thresh= 6.165E-07 alpha_mix =  0.700 |ddv_scf|^2 =  2.067E-12

      iter #   7 total cpu time :    55.1 secs   av.it.:  19.7
      thresh= 1.438E-07 alpha_mix =  0.700 |ddv_scf|^2 =  4.211E-13

     End of electric fields calculation

          Dielectric constant in cartesian axis 

          (       5.371325427       0.000000000       0.000000000 )
          (      -0.000000000       6.188687822      -0.000000000 )
          (       0.000000000      -0.000000000       6.188687822 )

          Effective charges (d Force / dE) in cartesian axis

           atom      1   Ba 
      Ex  (        2.90285       -0.00000       -0.00000 )
      Ey  (        0.00000        2.64170        0.00000 )
      Ez  (        0.00000        0.00000        2.64170 )
           atom      2   Ti 
      Ex  (        5.41798       -0.00000        0.00000 )
      Ey  (       -0.00000        6.91526       -0.00000 )
      Ez  (        0.00000       -0.00000        6.91526 )
           atom      3   O  
      Ex  (       -4.39305       -0.00000        0.00000 )
      Ey  (       -0.00000       -1.99091        0.00000 )
      Ez  (        0.00000        0.00000       -1.99091 )
           atom      4   O  
      Ex  (       -1.93948        0.00000        0.00000 )
      Ey  (       -0.00000       -5.52865       -0.00000 )
      Ez  (        0.00000        0.00000       -2.13630 )
           atom      5   O  
      Ex  (       -1.93948        0.00000        0.00000 )
      Ey  (        0.00000       -2.13630        0.00000 )
      Ez  (        0.00000       -0.00000       -5.52865 )


     Representation #  1 mode #   1

     Self-consistent Calculation

      iter #   1 total cpu time :    64.2 secs   av.it.:   7.9
      thresh= 1.000E-02 alpha_mix =  0.700 |ddv_scf|^2 =  4.828E-07

      iter #   2 total cpu time :    66.0 secs   av.it.:  17.6
      thresh= 6.948E-05 alpha_mix =  0.700 |ddv_scf|^2 =  1.623E-07

      iter #   3 total cpu time :    68.3 secs   av.it.:  18.3
      thresh= 4.029E-05 alpha_mix =  0.700 |ddv_scf|^2 =  6.497E-08

      iter #   4 total cpu time :    70.2 secs   av.it.:  17.4
      thresh= 2.549E-05 alpha_mix =  0.700 |ddv_scf|^2 =  3.146E-09

      iter #   5 total cpu time :    72.4 secs   av.it.:  18.4
      thresh= 5.609E-06 alpha_mix =  0.700 |ddv_scf|^2 =  2.851E-09

      iter #   6 total cpu time :    74.1 secs   av.it.:  16.8
      thresh= 5.340E-06 alpha_mix =  0.700 |ddv_scf|^2 =  1.210E-11

      iter #   7 total cpu time :    76.2 secs   av.it.:  18.6
      thresh= 3.478E-07 alpha_mix =  0.700 |ddv_scf|^2 =  2.933E-12

      iter #   8 total cpu time :    78.1 secs   av.it.:  18.4
      thresh= 1.713E-07 alpha_mix =  0.700 |ddv_scf|^2 =  2.371E-13

     End of self-consistent calculation

     Convergence has been achieved 


     Representation #  2 mode #   2

     Self-consistent Calculation

      iter #   1 total cpu time :    79.9 secs   av.it.:  10.1
      thresh= 1.000E-02 alpha_mix =  0.700 |ddv_scf|^2 =  3.085E-06

      iter #   2 total cpu time :    81.9 secs   av.it.:  18.2
      thresh= 1.756E-04 alpha_mix =  0.700 |ddv_scf|^2 =  1.528E-06

      iter #   3 total cpu time :    84.0 secs   av.it.:  17.8
      thresh= 1.236E-04 alpha_mix =  0.700 |ddv_scf|^2 =  4.182E-07

      iter #   4 total cpu time :    85.8 secs   av.it.:  16.8
      thresh= 6.467E-05 alpha_mix =  0.700 |ddv_scf|^2 =  2.042E-09

      iter #   5 total cpu time :    87.9 secs   av.it.:  18.3
      thresh= 4.519E-06 alpha_mix =  0.700 |ddv_scf|^2 =  1.245E-10

      iter #   6 total cpu time :    89.8 secs   av.it.:  18.1
      thresh= 1.116E-06 alpha_mix =  0.700 |ddv_scf|^2 =  1.354E-10

      iter #   7 total cpu time :    91.7 secs   av.it.:  17.5
      thresh= 1.164E-06 alpha_mix =  0.700 |ddv_scf|^2 =  1.518E-11

      iter #   8 total cpu time :    97.5 secs   av.it.:  17.8
      thresh= 3.896E-07 alpha_mix =  0.700 |ddv_scf|^2 =  1.053E-12

      iter #   9 total cpu time :    99.4 secs   av.it.:  18.3
      thresh= 1.026E-07 alpha_mix =  0.700 |ddv_scf|^2 =  4.361E-14

     End of self-consistent calculation

     Convergence has been achieved 


     Representation #  3 mode #   3

     Self-consistent Calculation

      iter #   1 total cpu time :   101.2 secs   av.it.:   8.9
      thresh= 1.000E-02 alpha_mix =  0.700 |ddv_scf|^2 =  1.154E-06

      iter #   2 total cpu time :   103.1 secs   av.it.:  17.9
      thresh= 1.074E-04 alpha_mix =  0.700 |ddv_scf|^2 =  3.883E-07

      iter #   3 total cpu time :   105.1 secs   av.it.:  18.3
      thresh= 6.232E-05 alpha_mix =  0.700 |ddv_scf|^2 =  2.229E-07

      iter #   4 total cpu time :   107.1 secs   av.it.:  17.2
      thresh= 4.721E-05 alpha_mix =  0.700 |ddv_scf|^2 =  4.004E-09

      iter #   5 total cpu time :   109.1 secs   av.it.:  17.8
      thresh= 6.327E-06 alpha_mix =  0.700 |ddv_scf|^2 =  4.727E-10

      iter #   6 total cpu time :   111.0 secs   av.it.:  17.1
      thresh= 2.174E-06 alpha_mix =  0.700 |ddv_scf|^2 =  3.597E-11

      iter #   7 total cpu time :   112.9 secs   av.it.:  17.5
      thresh= 5.998E-07 alpha_mix =  0.700 |ddv_scf|^2 =  3.502E-12

      iter #   8 total cpu time :   114.8 secs   av.it.:  17.8
      thresh= 1.871E-07 alpha_mix =  0.700 |ddv_scf|^2 =  3.163E-13

     End of self-consistent calculation

     Convergence has been achieved 


     Representation #  4 mode #   4

     Self-consistent Calculation

      iter #   1 total cpu time :   116.5 secs   av.it.:   9.1
      thresh= 1.000E-02 alpha_mix =  0.700 |ddv_scf|^2 =  1.014E-06

      iter #   2 total cpu time :   118.8 secs   av.it.:  18.3
      thresh= 1.007E-04 alpha_mix =  0.700 |ddv_scf|^2 =  1.046E-06

      iter #   3 total cpu time :   120.8 secs   av.it.:  18.1
      thresh= 1.023E-04 alpha_mix =  0.700 |ddv_scf|^2 =  4.926E-07

      iter #   4 total cpu time :   122.7 secs   av.it.:  17.2
      thresh= 7.019E-05 alpha_mix =  0.700 |ddv_scf|^2 =  2.908E-09

      iter #   5 total cpu time :   124.8 secs   av.it.:  18.4
      thresh= 5.392E-06 alpha_mix =  0.700 |ddv_scf|^2 =  1.396E-09

      iter #   6 total cpu time :   126.8 secs   av.it.:  17.3
      thresh= 3.736E-06 alpha_mix =  0.700 |ddv_scf|^2 =  2.572E-11

      iter #   7 total cpu time :   129.0 secs   av.it.:  17.8
      thresh= 5.071E-07 alpha_mix =  0.700 |ddv_scf|^2 =  3.049E-12

      iter #   8 total cpu time :   131.1 secs   av.it.:  17.9
      thresh= 1.746E-07 alpha_mix =  0.700 |ddv_scf|^2 =  3.502E-13

     End of self-consistent calculation

     Convergence has been achieved 


     Representation #  5 mode #   5

     Self-consistent Calculation

      iter #   1 total cpu time :   132.7 secs   av.it.:   8.4
      thresh= 1.000E-02 alpha_mix =  0.700 |ddv_scf|^2 =  3.596E-07

      iter #   2 total cpu time :   135.1 secs   av.it.:  17.2
      thresh= 5.997E-05 alpha_mix =  0.700 |ddv_scf|^2 =  3.195E-09

      iter #   3 total cpu time :   137.4 secs   av.it.:  18.1
      thresh= 5.652E-06 alpha_mix =  0.700 |ddv_scf|^2 =  3.909E-09

      iter #   4 total cpu time :   139.3 secs   av.it.:  16.5
      thresh= 6.252E-06 alpha_mix =  0.700 |ddv_scf|^2 =  5.892E-11

      iter #   5 total cpu time :   141.4 secs   av.it.:  16.7
      thresh= 7.676E-07 alpha_mix =  0.700 |ddv_scf|^2 =  1.385E-12

      iter #   6 total cpu time :   143.3 secs   av.it.:  16.5
      thresh= 1.177E-07 alpha_mix =  0.700 |ddv_scf|^2 =  5.474E-15

     End of self-consistent calculation

     Convergence has been achieved 


     Representation #  6 modes #   6  7

     Self-consistent Calculation

      iter #   1 total cpu time :   146.3 secs   av.it.:   9.4
      thresh= 1.000E-02 alpha_mix =  0.700 |ddv_scf|^2 =  2.843E-07

      iter #   2 total cpu time :   150.8 secs   av.it.:  19.6
      thresh= 5.332E-05 alpha_mix =  0.700 |ddv_scf|^2 =  5.467E-08

      iter #   3 total cpu time :   154.9 secs   av.it.:  19.2
      thresh= 2.338E-05 alpha_mix =  0.700 |ddv_scf|^2 =  2.619E-10

      iter #   4 total cpu time :   158.9 secs   av.it.:  19.1
      thresh= 1.618E-06 alpha_mix =  0.700 |ddv_scf|^2 =  3.325E-12

      iter #   5 total cpu time :   162.8 secs   av.it.:  19.2
      thresh= 1.824E-07 alpha_mix =  0.700 |ddv_scf|^2 =  2.079E-13

     End of self-consistent calculation

     Convergence has been achieved 


     Representation #  7 modes #   8  9

     Self-consistent Calculation

      iter #   1 total cpu time :   166.0 secs   av.it.:  10.2
      thresh= 1.000E-02 alpha_mix =  0.700 |ddv_scf|^2 =  6.936E-07

      iter #   2 total cpu time :   170.2 secs   av.it.:  19.6
      thresh= 8.328E-05 alpha_mix =  0.700 |ddv_scf|^2 =  1.792E-07

      iter #   3 total cpu time :   174.5 secs   av.it.:  19.0
      thresh= 4.233E-05 alpha_mix =  0.700 |ddv_scf|^2 =  3.928E-10

      iter #   4 total cpu time :   178.7 secs   av.it.:  19.8
      thresh= 1.982E-06 alpha_mix =  0.700 |ddv_scf|^2 =  1.107E-11

      iter #   5 total cpu time :   182.6 secs   av.it.:  19.1
      thresh= 3.328E-07 alpha_mix =  0.700 |ddv_scf|^2 =  2.624E-13

     End of self-consistent calculation

     Convergence has been achieved 


     Representation #  8 modes #  10 11

     Self-consistent Calculation

      iter #   1 total cpu time :   185.8 secs   av.it.:   8.6
      thresh= 1.000E-02 alpha_mix =  0.700 |ddv_scf|^2 =  1.683E-07

      iter #   2 total cpu time :   189.8 secs   av.it.:  19.5
      thresh= 4.103E-05 alpha_mix =  0.700 |ddv_scf|^2 =  2.221E-08

      iter #   3 total cpu time :   193.8 secs   av.it.:  19.2
      thresh= 1.490E-05 alpha_mix =  0.700 |ddv_scf|^2 =  4.068E-10

      iter #   4 total cpu time :   198.1 secs   av.it.:  19.2
      thresh= 2.017E-06 alpha_mix =  0.700 |ddv_scf|^2 =  3.350E-12

      iter #   5 total cpu time :   202.1 secs   av.it.:  18.8
      thresh= 1.830E-07 alpha_mix =  0.700 |ddv_scf|^2 =  1.763E-13

     End of self-consistent calculation

     Convergence has been achieved 


     Representation #  9 modes #  12 13

     Self-consistent Calculation

      iter #   1 total cpu time :   205.1 secs   av.it.:   7.9
      thresh= 1.000E-02 alpha_mix =  0.700 |ddv_scf|^2 =  9.759E-08

      iter #   2 total cpu time :   209.1 secs   av.it.:  19.1
      thresh= 3.124E-05 alpha_mix =  0.700 |ddv_scf|^2 =  1.900E-08

      iter #   3 total cpu time :   213.2 secs   av.it.:  19.0
      thresh= 1.378E-05 alpha_mix =  0.700 |ddv_scf|^2 =  1.936E-10

      iter #   4 total cpu time :   217.6 secs   av.it.:  19.3
      thresh= 1.392E-06 alpha_mix =  0.700 |ddv_scf|^2 =  8.986E-12

      iter #   5 total cpu time :   221.5 secs   av.it.:  19.4
      thresh= 2.998E-07 alpha_mix =  0.700 |ddv_scf|^2 =  1.886E-13

     End of self-consistent calculation

     Convergence has been achieved 


     Representation # 10 modes #  14 15

     Self-consistent Calculation

      iter #   1 total cpu time :   224.6 secs   av.it.:   8.6
      thresh= 1.000E-02 alpha_mix =  0.700 |ddv_scf|^2 =  8.744E-08

      iter #   2 total cpu time :   228.7 secs   av.it.:  19.5
      thresh= 2.957E-05 alpha_mix =  0.700 |ddv_scf|^2 =  3.005E-09

      iter #   3 total cpu time :   232.7 secs   av.it.:  19.3
      thresh= 5.482E-06 alpha_mix =  0.700 |ddv_scf|^2 =  2.213E-10

      iter #   4 total cpu time :   237.1 secs   av.it.:  18.9
      thresh= 1.488E-06 alpha_mix =  0.700 |ddv_scf|^2 =  3.652E-12

      iter #   5 total cpu time :   241.3 secs   av.it.:  18.8
      thresh= 1.911E-07 alpha_mix =  0.700 |ddv_scf|^2 =  2.947E-13

     End of self-consistent calculation

     Convergence has been achieved 
 
     Number of q in the star =    1
     List of q in the star:
          1   0.000000000   0.000000000   0.000000000

          Dielectric constant in cartesian axis 

          (       5.371325427       0.000000000       0.000000000 )
          (      -0.000000000       6.188687822      -0.000000000 )
          (       0.000000000      -0.000000000       6.188687822 )

          Effective charges (d Force / dE) in cartesian axis

           atom      1   Ba 
      Ex  (        2.90285       -0.00000       -0.00000 )
      Ey  (        0.00000        2.64170        0.00000 )
      Ez  (        0.00000        0.00000        2.64170 )
           atom      2   Ti 
      Ex  (        5.41798       -0.00000        0.00000 )
      Ey  (       -0.00000        6.91526       -0.00000 )
      Ez  (        0.00000       -0.00000        6.91526 )
           atom      3   O  
      Ex  (       -4.39305       -0.00000        0.00000 )
      Ey  (       -0.00000       -1.99091        0.00000 )
      Ez  (        0.00000        0.00000       -1.99091 )
           atom      4   O  
      Ex  (       -1.93948        0.00000        0.00000 )
      Ey  (       -0.00000       -5.52865       -0.00000 )
      Ez  (        0.00000        0.00000       -2.13630 )
           atom      5   O  
      Ex  (       -1.93948        0.00000        0.00000 )
      Ey  (        0.00000       -2.13630        0.00000 )
      Ez  (        0.00000       -0.00000       -5.52865 )

          Effective charges (d P / du) in cartesian axis 

           atom      1   Ba 
      Px  (        2.89557        0.00000        0.00000 )
      Py  (        0.00000        2.75293       -0.00000 )
      Pz  (        0.00000       -0.00000        2.75293 )
           atom      2   Ti 
      Px  (        5.38372       -0.00000        0.00000 )
      Py  (        0.00000        6.89546        0.00000 )
      Pz  (        0.00000        0.00000        6.89546 )
           atom      3   O  
      Px  (       -4.39264       -0.00000        0.00000 )
      Py  (        0.00000       -1.99415       -0.00000 )
      Pz  (        0.00000       -0.00000       -1.99415 )
           atom      4   O  
      Px  (       -1.94030        0.00000        0.00000 )
      Py  (        0.00000       -5.52913       -0.00000 )
      Pz  (        0.00000        0.00000       -2.13803 )
           atom      5   O  
      Px  (       -1.94030       -0.00000        0.00000 )
      Py  (        0.00000       -2.13803        0.00000 )
      Pz  (        0.00000       -0.00000       -5.52913 )

     Diagonalizing the dynamical matrix

     q = (    0.000000000   0.000000000   0.000000000 ) 

 **************************************************************************
     freq (    1) =      -3.048251 [THz] =    -101.678713 [cm-1]
     freq (    2) =      -3.048251 [THz] =    -101.678713 [cm-1]
     freq (    3) =       0.418184 [THz] =      13.949119 [cm-1]
     freq (    4) =       3.236949 [THz] =     107.972997 [cm-1]
     freq (    5) =       3.236949 [THz] =     107.972997 [cm-1]
     freq (    6) =       3.920238 [THz] =     130.765077 [cm-1]
     freq (    7) =       3.945451 [THz] =     131.606080 [cm-1]
     freq (    8) =       3.945451 [THz] =     131.606080 [cm-1]
     freq (    9) =       7.884556 [THz] =     263.000480 [cm-1]
     freq (   10) =       8.521828 [THz] =     284.257586 [cm-1]
     freq (   11) =       8.521828 [THz] =     284.257586 [cm-1]
     freq (   12) =      10.150280 [THz] =     338.576901 [cm-1]
     freq (   13) =      14.227667 [THz] =     474.583891 [cm-1]
     freq (   14) =      14.227667 [THz] =     474.583891 [cm-1]
     freq (   15) =      16.130272 [THz] =     538.047962 [cm-1]
 **************************************************************************

     Mode symmetry, C_4v (4mm)  point group:

     freq (  1 -  2) =       -101.7  [cm-1]   --> E    G_5 D_5    I+R
     freq (  3 -  3) =         13.9  [cm-1]   --> A_1  G_1 D_1    I+R
     freq (  4 -  5) =        108.0  [cm-1]   --> E    G_5 D_5    I+R
     freq (  6 -  6) =        130.8  [cm-1]   --> A_1  G_1 D_1    I+R
     freq (  7 -  8) =        131.6  [cm-1]   --> E    G_5 D_5    I+R
     freq (  9 -  9) =        263.0  [cm-1]   --> B_1  G_3 D_2    R  
     freq ( 10 - 11) =        284.3  [cm-1]   --> E    G_5 D_5    I+R
     freq ( 12 - 12) =        338.6  [cm-1]   --> A_1  G_1 D_1    I+R
     freq ( 13 - 14) =        474.6  [cm-1]   --> E    G_5 D_5    I+R
     freq ( 15 - 15) =        538.0  [cm-1]   --> A_1  G_1 D_1    I+R

     Calculation of q =    0.0000000   0.0000000   0.2471842

   Info: using nr1, nr2, nr3 values from input

   Info: using nr1, nr2, nr3 values from input
 
     Parallelization info
     --------------------
     sticks:   dense  smooth     PW     G-vecs:    dense   smooth      PW
     Min         131      65     19                 5913     2089     323
     Max         132      66     20                 5918     2092     326
     Sum        3687    1843    535               165629    58557    9095
 


     bravais-lattice index     =            0
     lattice parameter (alat)  =       7.4000  a.u.
     unit-cell volume          =     433.3637 (a.u.)^3
     number of atoms/cell      =            5
     number of atomic types    =            3
     number of electrons       =        40.00
     number of Kohn-Sham states=           24
     kinetic-energy cutoff     =     100.0000  Ry
     charge density cutoff     =     800.0000  Ry
     Exchange-correlation      =  SLA  PW   PBE  PBE ( 1  4  3  4 0 0)

     celldm(1)=   7.400000  celldm(2)=   0.000000  celldm(3)=   0.000000
     celldm(4)=   0.000000  celldm(5)=   0.000000  celldm(6)=   0.000000

     crystal axes: (cart. coord. in units of alat)
               a(1) = (   1.045488   0.000000   0.000000 )  
               a(2) = (   0.000000   1.011391   0.000000 )  
               a(3) = (   0.000000   0.000000   1.011391 )  

     reciprocal axes: (cart. coord. in units 2 pi/alat)
               b(1) = (  0.956491  0.000000  0.000000 )  
               b(2) = (  0.000000  0.988737  0.000000 )  
               b(3) = (  0.000000  0.000000  0.988737 )  


     PseudoPot. # 1 for O  read from file:
     ../../PSP_DIR/O.pbe-rrkjus.UPF
     MD5 check sum: 390ba29e75625707450f3bd3f0eb6be9
     Pseudo is Ultrasoft, Zval =  6.0
     Generated by new atomic code, or converted to UPF format
     Using radial grid of 1269 points,  4 beta functions with: 
                l(1) =   0
                l(2) =   0
                l(3) =   1
                l(4) =   1
     Q(r) pseudized with 0 coefficients 


     PseudoPot. # 2 for Ti read from file:
     ../../PSP_DIR/Ti.pbe-sp-van_ak.UPF
     MD5 check sum: 8e4df49b7f0d34bbd5052bf3f5ea0213
     Pseudo is Ultrasoft, Zval = 12.0
     Generated by new atomic code, or converted to UPF format
     Using radial grid of  851 points,  6 beta functions with: 
                l(1) =   0
                l(2) =   0
                l(3) =   1
                l(4) =   1
                l(5) =   2
                l(6) =   2
     Q(r) pseudized with  8 coefficients,  rinner =    1.000   1.000   1.000
                                                       1.000   1.000

     PseudoPot. # 3 for Ba read from file:
     ../../PSP_DIR/Ba.pbe-nsp-van.UPF
     MD5 check sum: a011de417d3466d8e94df216395bc359
     Pseudo is Ultrasoft + core correction, Zval = 10.0
     Generated by new atomic code, or converted to UPF format
     Using radial grid of  907 points,  6 beta functions with: 
                l(1) =   0
                l(2) =   0
                l(3) =   1
                l(4) =   1
                l(5) =   2
                l(6) =   2
     Q(r) pseudized with  6 coefficients,  rinner =    1.200   1.200   1.200
                                                       1.200   1.200

     atomic species   valence    mass     pseudopotential
        O              6.00    15.99000     O ( 1.00)
        Ti            12.00    47.88000     Ti( 1.00)
        Ba            10.00   137.33000     Ba( 1.00)

      8 Sym. Ops. (no inversion) found



   Cartesian axes

     site n.     atom                  positions (alat units)
         1           Ba  tau(   1) = (  -0.0243650   0.0000000   0.0000000  )
         2           Ti  tau(   2) = (   0.4894495   0.5056957   0.5056957  )
         3           O   tau(   3) = (   0.0228482   0.5056957   0.5056957  )
         4           O   tau(   4) = (   0.5349219   0.0000000   0.5056957  )
         5           O   tau(   5) = (   0.5349219   0.5056957   0.0000000  )

     number of k points=   216

     Number of k-points >= 100: set verbosity='high' to print them.

     Dense  grid:   165629 G-vectors     FFT dimensions: (  72,  72,  72)

     Smooth grid:    58557 G-vectors     FFT dimensions: (  50,  48,  48)

     Estimated max dynamical RAM per process >       5.69MB

     Estimated total allocated dynamical RAM >     159.22MB

     The potential is recalculated from file :
     ./_ph0/bto.save/charge-density.dat

     Starting wfc are   35 atomic wfcs

     Band Structure Calculation
     Davidson diagonalization with overlap

     ethr =  2.50E-11,  avg # of iterations = 20.6

     total cpu time spent up to now is       27.3 secs

     End of band structure calculation

     Number of k-points >= 100: set verbosity='high' to print the bands.

     highest occupied, lowest unoccupied level (ev):    10.1889   12.4948

     Writing output data file bto.save

                                                                                

     bravais-lattice index     =            0
     lattice parameter (alat)  =       7.4000  a.u.
     unit-cell volume          =     433.3637 (a.u.)^3
     number of atoms/cell      =            5
     number of atomic types    =            3
     kinetic-energy cut-off    =     100.0000  Ry
     charge density cut-off    =     800.0000  Ry
     convergence threshold     =      1.0E-12
     beta                      =       0.7000
     number of iterations used =            4
     Exchange-correlation      =  SLA  PW   PBE  PBE ( 1  4  3  4 0 0)


     celldm(1)=    7.40000  celldm(2)=    0.00000  celldm(3)=    0.00000
     celldm(4)=    0.00000  celldm(5)=    0.00000  celldm(6)=    0.00000

     crystal axes: (cart. coord. in units of alat)
               a(1) = (  1.0455  0.0000  0.0000 )  
               a(2) = (  0.0000  1.0114  0.0000 )  
               a(3) = (  0.0000  0.0000  1.0114 )  

     reciprocal axes: (cart. coord. in units 2 pi/alat)
               b(1) = (  0.9565  0.0000  0.0000 )  
               b(2) = (  0.0000  0.9887  0.0000 )  
               b(3) = (  0.0000  0.0000  0.9887 )  


     Atoms inside the unit cell: 

     Cartesian axes

     site n.  atom      mass           positions (alat units)
        1     Ba 137.3300   tau(    1) = (   -0.02436    0.00000    0.00000  )
        2     Ti  47.8800   tau(    2) = (    0.48945    0.50570    0.50570  )
        3     O   15.9900   tau(    3) = (    0.02285    0.50570    0.50570  )
        4     O   15.9900   tau(    4) = (    0.53492    0.00000    0.50570  )
        5     O   15.9900   tau(    5) = (    0.53492    0.50570    0.00000  )

     Computing dynamical matrix for 
                    q = (   0.0000000   0.0000000   0.2471842 )
 
      2 Sym.Ops. (no q -> -q+G )


     G cutoff = 1109.6696  (   5915 G-vectors)     FFT grid: ( 72, 72, 72)
     G cutoff =  554.8348  (   2092 G-vectors)  smooth grid: ( 50, 48, 48)
     number of k points=   216

     PseudoPot. # 1 for O  read from file:
     ../../PSP_DIR/O.pbe-rrkjus.UPF
     MD5 check sum: 390ba29e75625707450f3bd3f0eb6be9
     Pseudo is Ultrasoft, Zval =  6.0
     Generated by new atomic code, or converted to UPF format
     Using radial grid of 1269 points,  4 beta functions with: 
                l(1) =   0
                l(2) =   0
                l(3) =   1
                l(4) =   1
     Q(r) pseudized with 0 coefficients 


     PseudoPot. # 2 for Ti read from file:
     ../../PSP_DIR/Ti.pbe-sp-van_ak.UPF
     MD5 check sum: 8e4df49b7f0d34bbd5052bf3f5ea0213
     Pseudo is Ultrasoft, Zval = 12.0
     Generated by new atomic code, or converted to UPF format
     Using radial grid of  851 points,  6 beta functions with: 
                l(1) =   0
                l(2) =   0
                l(3) =   1
                l(4) =   1
                l(5) =   2
                l(6) =   2
     Q(r) pseudized with  8 coefficients,  rinner =    1.000   1.000   1.000
                                                       1.000   1.000

     PseudoPot. # 3 for Ba read from file:
     ../../PSP_DIR/Ba.pbe-nsp-van.UPF
     MD5 check sum: a011de417d3466d8e94df216395bc359
     Pseudo is Ultrasoft + core correction, Zval = 10.0
     Generated by new atomic code, or converted to UPF format
     Using radial grid of  907 points,  6 beta functions with: 
                l(1) =   0
                l(2) =   0
                l(3) =   1
                l(4) =   1
                l(5) =   2
                l(6) =   2
     Q(r) pseudized with  6 coefficients,  rinner =    1.200   1.200   1.200
                                                       1.200   1.200

     Mode symmetry, C_s (m)     point group:


     Atomic displacements:
     There are  15 irreducible representations

     Representation     1      1 modes -A'  To be done

     Representation     2      1 modes -A'  To be done

     Representation     3      1 modes -A'  To be done

     Representation     4      1 modes -A'  To be done

     Representation     5      1 modes -A'  To be done

     Representation     6      1 modes -A'  To be done

     Representation     7      1 modes -A'  To be done

     Representation     8      1 modes -A'  To be done

     Representation     9      1 modes -A'  To be done

     Representation    10      1 modes -A'  To be done

     Representation    11      1 modes -A''  To be done

     Representation    12      1 modes -A''  To be done

     Representation    13      1 modes -A''  To be done

     Representation    14      1 modes -A''  To be done

     Representation    15      1 modes -A''  To be done



     Alpha used in Ewald sum =   2.8000
     PHONON       :  4m21.41s CPU     4m36.33s WALL



     Representation #  1 mode #   1

     Self-consistent Calculation

      iter #   1 total cpu time :   283.3 secs   av.it.:   9.0
      thresh= 1.000E-02 alpha_mix =  0.700 |ddv_scf|^2 =  1.972E-05

      iter #   2 total cpu time :   293.1 secs   av.it.:  16.7
      thresh= 4.440E-04 alpha_mix =  0.700 |ddv_scf|^2 =  1.676E-04

      iter #   3 total cpu time :   301.7 secs   av.it.:  13.9
      thresh= 1.295E-03 alpha_mix =  0.700 |ddv_scf|^2 =  1.766E-07

      iter #   4 total cpu time :   312.2 secs   av.it.:  18.1
      thresh= 4.202E-05 alpha_mix =  0.700 |ddv_scf|^2 =  6.479E-08

      iter #   5 total cpu time :   322.6 secs   av.it.:  17.6
      thresh= 2.545E-05 alpha_mix =  0.700 |ddv_scf|^2 =  2.283E-09

      iter #   6 total cpu time :   333.2 secs   av.it.:  18.8
      thresh= 4.779E-06 alpha_mix =  0.700 |ddv_scf|^2 =  1.636E-09

      iter #   7 total cpu time :   343.5 secs   av.it.:  17.5
      thresh= 4.045E-06 alpha_mix =  0.700 |ddv_scf|^2 =  3.562E-11

      iter #   8 total cpu time :   354.2 secs   av.it.:  18.4
      thresh= 5.968E-07 alpha_mix =  0.700 |ddv_scf|^2 =  1.807E-12

      iter #   9 total cpu time :   365.0 secs   av.it.:  18.7
      thresh= 1.344E-07 alpha_mix =  0.700 |ddv_scf|^2 =  1.406E-12

      iter #  10 total cpu time :   375.5 secs   av.it.:  17.4
      thresh= 1.186E-07 alpha_mix =  0.700 |ddv_scf|^2 =  1.779E-13

     End of self-consistent calculation

     Convergence has been achieved 


     Representation #  2 mode #   2

     Self-consistent Calculation

      iter #   1 total cpu time :   383.1 secs   av.it.:   9.3
      thresh= 1.000E-02 alpha_mix =  0.700 |ddv_scf|^2 =  3.370E-05

      iter #   2 total cpu time :   393.0 secs   av.it.:  16.7
      thresh= 5.805E-04 alpha_mix =  0.700 |ddv_scf|^2 =  2.709E-04

      iter #   3 total cpu time :   401.5 secs   av.it.:  13.9
      thresh= 1.646E-03 alpha_mix =  0.700 |ddv_scf|^2 =  6.458E-07

      iter #   4 total cpu time :   411.5 secs   av.it.:  17.3
      thresh= 8.036E-05 alpha_mix =  0.700 |ddv_scf|^2 =  1.144E-07

      iter #   5 total cpu time :   422.2 secs   av.it.:  17.3
      thresh= 3.382E-05 alpha_mix =  0.700 |ddv_scf|^2 =  2.318E-08

      iter #   6 total cpu time :   432.5 secs   av.it.:  17.5
      thresh= 1.523E-05 alpha_mix =  0.700 |ddv_scf|^2 =  1.034E-10

      iter #   7 total cpu time :   442.7 secs   av.it.:  17.9
      thresh= 1.017E-06 alpha_mix =  0.700 |ddv_scf|^2 =  1.667E-11

      iter #   8 total cpu time :   453.3 secs   av.it.:  18.3
      thresh= 4.083E-07 alpha_mix =  0.700 |ddv_scf|^2 =  2.704E-11

      iter #   9 total cpu time :   463.2 secs   av.it.:  16.7
      thresh= 5.200E-07 alpha_mix =  0.700 |ddv_scf|^2 =  1.582E-13

     End of self-consistent calculation

     Convergence has been achieved 


     Representation #  3 mode #   3

     Self-consistent Calculation

      iter #   1 total cpu time :   471.3 secs   av.it.:  11.0
      thresh= 1.000E-02 alpha_mix =  0.700 |ddv_scf|^2 =  8.983E-05

      iter #   2 total cpu time :   481.2 secs   av.it.:  17.0
      thresh= 9.478E-04 alpha_mix =  0.700 |ddv_scf|^2 =  7.855E-04

      iter #   3 total cpu time :   489.7 secs   av.it.:  14.0
      thresh= 2.803E-03 alpha_mix =  0.700 |ddv_scf|^2 =  1.120E-06

      iter #   4 total cpu time :   499.9 secs   av.it.:  17.8
      thresh= 1.058E-04 alpha_mix =  0.700 |ddv_scf|^2 =  2.183E-07

      iter #   5 total cpu time :   510.3 secs   av.it.:  17.8
      thresh= 4.673E-05 alpha_mix =  0.700 |ddv_scf|^2 =  4.905E-08

      iter #   6 total cpu time :   520.6 secs   av.it.:  17.5
      thresh= 2.215E-05 alpha_mix =  0.700 |ddv_scf|^2 =  2.934E-09

      iter #   7 total cpu time :   530.8 secs   av.it.:  17.9
      thresh= 5.417E-06 alpha_mix =  0.700 |ddv_scf|^2 =  2.802E-09

      iter #   8 total cpu time :   540.3 secs   av.it.:  16.1
      thresh= 5.294E-06 alpha_mix =  0.700 |ddv_scf|^2 =  4.890E-12

      iter #   9 total cpu time :   550.7 secs   av.it.:  18.3
      thresh= 2.211E-07 alpha_mix =  0.700 |ddv_scf|^2 =  2.929E-12

      iter #  10 total cpu time :   561.0 secs   av.it.:  17.6
      thresh= 1.712E-07 alpha_mix =  0.700 |ddv_scf|^2 =  1.825E-13

     End of self-consistent calculation

     Convergence has been achieved 


     Representation #  4 mode #   4

     Self-consistent Calculation

      iter #   1 total cpu time :   568.4 secs   av.it.:   9.4
      thresh= 1.000E-02 alpha_mix =  0.700 |ddv_scf|^2 =  3.174E-05

      iter #   2 total cpu time :   578.4 secs   av.it.:  16.8
      thresh= 5.633E-04 alpha_mix =  0.700 |ddv_scf|^2 =  2.487E-04

      iter #   3 total cpu time :   587.4 secs   av.it.:  14.0
      thresh= 1.577E-03 alpha_mix =  0.700 |ddv_scf|^2 =  7.190E-07

      iter #   4 total cpu time :   597.3 secs   av.it.:  17.2
      thresh= 8.480E-05 alpha_mix =  0.700 |ddv_scf|^2 =  1.301E-07

      iter #   5 total cpu time :   607.3 secs   av.it.:  17.2
      thresh= 3.607E-05 alpha_mix =  0.700 |ddv_scf|^2 =  2.608E-08

      iter #   6 total cpu time :   617.4 secs   av.it.:  17.3
      thresh= 1.615E-05 alpha_mix =  0.700 |ddv_scf|^2 =  2.156E-10

      iter #   7 total cpu time :   627.9 secs   av.it.:  18.3
      thresh= 1.468E-06 alpha_mix =  0.700 |ddv_scf|^2 =  7.137E-11

      iter #   8 total cpu time :   638.2 secs   av.it.:  17.8
      thresh= 8.448E-07 alpha_mix =  0.700 |ddv_scf|^2 =  1.779E-11

      iter #   9 total cpu time :   648.3 secs   av.it.:  17.1
      thresh= 4.218E-07 alpha_mix =  0.700 |ddv_scf|^2 =  1.996E-13

     End of self-consistent calculation

     Convergence has been achieved 


     Representation #  5 mode #   5

     Self-consistent Calculation

      iter #   1 total cpu time :   655.7 secs   av.it.:   9.2
      thresh= 1.000E-02 alpha_mix =  0.700 |ddv_scf|^2 =  1.891E-05

      iter #   2 total cpu time :   665.6 secs   av.it.:  17.1
      thresh= 4.349E-04 alpha_mix =  0.700 |ddv_scf|^2 =  1.727E-04

      iter #   3 total cpu time :   674.5 secs   av.it.:  13.9
      thresh= 1.314E-03 alpha_mix =  0.700 |ddv_scf|^2 =  1.110E-07

      iter #   4 total cpu time :   684.9 secs   av.it.:  18.4
      thresh= 3.332E-05 alpha_mix =  0.700 |ddv_scf|^2 =  7.708E-08

      iter #   5 total cpu time :   695.0 secs   av.it.:  17.2
      thresh= 2.776E-05 alpha_mix =  0.700 |ddv_scf|^2 =  3.167E-09

      iter #   6 total cpu time :   705.2 secs   av.it.:  18.0
      thresh= 5.628E-06 alpha_mix =  0.700 |ddv_scf|^2 =  5.327E-10

      iter #   7 total cpu time :   715.3 secs   av.it.:  17.3
      thresh= 2.308E-06 alpha_mix =  0.700 |ddv_scf|^2 =  1.546E-10

      iter #   8 total cpu time :   725.9 secs   av.it.:  17.6
      thresh= 1.243E-06 alpha_mix =  0.700 |ddv_scf|^2 =  8.071E-10

      iter #   9 total cpu time :   734.9 secs   av.it.:  14.9
      thresh= 2.841E-06 alpha_mix =  0.700 |ddv_scf|^2 =  2.456E-12

      iter #  10 total cpu time :   744.8 secs   av.it.:  17.2
      thresh= 1.567E-07 alpha_mix =  0.700 |ddv_scf|^2 =  5.551E-13

     End of self-consistent calculation

     Convergence has been achieved 


     Representation #  6 mode #   6

     Self-consistent Calculation

      iter #   1 total cpu time :   752.2 secs   av.it.:   9.4
      thresh= 1.000E-02 alpha_mix =  0.700 |ddv_scf|^2 =  1.211E-05

      iter #   2 total cpu time :   762.3 secs   av.it.:  17.5
      thresh= 3.481E-04 alpha_mix =  0.700 |ddv_scf|^2 =  1.016E-04

      iter #   3 total cpu time :   771.1 secs   av.it.:  14.6
      thresh= 1.008E-03 alpha_mix =  0.700 |ddv_scf|^2 =  2.595E-07

      iter #   4 total cpu time :   781.0 secs   av.it.:  17.3
      thresh= 5.095E-05 alpha_mix =  0.700 |ddv_scf|^2 =  5.038E-08

      iter #   5 total cpu time :   791.2 secs   av.it.:  16.9
      thresh= 2.245E-05 alpha_mix =  0.700 |ddv_scf|^2 =  1.032E-08

      iter #   6 total cpu time :   801.2 secs   av.it.:  17.3
      thresh= 1.016E-05 alpha_mix =  0.700 |ddv_scf|^2 =  2.480E-10

      iter #   7 total cpu time :   811.5 secs   av.it.:  18.0
      thresh= 1.575E-06 alpha_mix =  0.700 |ddv_scf|^2 =  6.210E-11

      iter #   8 total cpu time :   822.0 secs   av.it.:  17.8
      thresh= 7.880E-07 alpha_mix =  0.700 |ddv_scf|^2 =  1.559E-11

      iter #   9 total cpu time :   831.9 secs   av.it.:  17.0
      thresh= 3.948E-07 alpha_mix =  0.700 |ddv_scf|^2 =  2.521E-13

     End of self-consistent calculation

     Convergence has been achieved 


     Representation #  7 mode #   7

     Self-consistent Calculation

      iter #   1 total cpu time :   839.9 secs   av.it.:  10.9
      thresh= 1.000E-02 alpha_mix =  0.700 |ddv_scf|^2 =  6.033E-05

      iter #   2 total cpu time :   850.1 secs   av.it.:  17.2
      thresh= 7.767E-04 alpha_mix =  0.700 |ddv_scf|^2 =  5.186E-04

      iter #   3 total cpu time :   858.7 secs   av.it.:  13.9
      thresh= 2.277E-03 alpha_mix =  0.700 |ddv_scf|^2 =  8.051E-07

      iter #   4 total cpu time :   868.8 secs   av.it.:  18.0
      thresh= 8.973E-05 alpha_mix =  0.700 |ddv_scf|^2 =  1.756E-07

      iter #   5 total cpu time :   879.3 secs   av.it.:  17.6
      thresh= 4.190E-05 alpha_mix =  0.700 |ddv_scf|^2 =  2.357E-08

      iter #   6 total cpu time :   889.7 secs   av.it.:  18.1
      thresh= 1.535E-05 alpha_mix =  0.700 |ddv_scf|^2 =  2.223E-09

      iter #   7 total cpu time :   900.0 secs   av.it.:  17.9
      thresh= 4.715E-06 alpha_mix =  0.700 |ddv_scf|^2 =  1.295E-09

      iter #   8 total cpu time :   909.6 secs   av.it.:  16.6
      thresh= 3.599E-06 alpha_mix =  0.700 |ddv_scf|^2 =  2.820E-12

      iter #   9 total cpu time :   920.5 secs   av.it.:  18.9
      thresh= 1.679E-07 alpha_mix =  0.700 |ddv_scf|^2 =  3.267E-12

      iter #  10 total cpu time :   930.7 secs   av.it.:  17.7
      thresh= 1.807E-07 alpha_mix =  0.700 |ddv_scf|^2 =  4.251E-13

     End of self-consistent calculation

     Convergence has been achieved 


     Representation #  8 mode #   8

     Self-consistent Calculation

      iter #   1 total cpu time :   938.3 secs   av.it.:   9.5
      thresh= 1.000E-02 alpha_mix =  0.700 |ddv_scf|^2 =  7.658E-05

      iter #   2 total cpu time :   947.8 secs   av.it.:  16.5
      thresh= 8.751E-04 alpha_mix =  0.700 |ddv_scf|^2 =  6.639E-04

      iter #   3 total cpu time :   956.2 secs   av.it.:  13.8
      thresh= 2.577E-03 alpha_mix =  0.700 |ddv_scf|^2 =  4.714E-07

      iter #   4 total cpu time :   966.5 secs   av.it.:  18.0
      thresh= 6.866E-05 alpha_mix =  0.700 |ddv_scf|^2 =  1.419E-07

      iter #   5 total cpu time :   977.0 secs   av.it.:  17.7
      thresh= 3.767E-05 alpha_mix =  0.700 |ddv_scf|^2 =  6.785E-09

      iter #   6 total cpu time :   987.4 secs   av.it.:  18.5
      thresh= 8.237E-06 alpha_mix =  0.700 |ddv_scf|^2 =  3.130E-09

      iter #   7 total cpu time :   997.4 secs   av.it.:  17.4
      thresh= 5.594E-06 alpha_mix =  0.700 |ddv_scf|^2 =  1.762E-11

      iter #   8 total cpu time :  1008.3 secs   av.it.:  18.7
      thresh= 4.198E-07 alpha_mix =  0.700 |ddv_scf|^2 =  1.613E-11

      iter #   9 total cpu time :  1018.5 secs   av.it.:  17.1
      thresh= 4.017E-07 alpha_mix =  0.700 |ddv_scf|^2 =  6.450E-12

      iter #  10 total cpu time :  1028.5 secs   av.it.:  17.4
      thresh= 2.540E-07 alpha_mix =  0.700 |ddv_scf|^2 =  5.582E-13

     End of self-consistent calculation

     Convergence has been achieved 


     Representation #  9 mode #   9

     Self-consistent Calculation

      iter #   1 total cpu time :  1035.7 secs   av.it.:   9.1
      thresh= 1.000E-02 alpha_mix =  0.700 |ddv_scf|^2 =  9.940E-06

      iter #   2 total cpu time :  1046.0 secs   av.it.:  17.1
      thresh= 3.153E-04 alpha_mix =  0.700 |ddv_scf|^2 =  7.861E-05

      iter #   3 total cpu time :  1054.9 secs   av.it.:  14.1
      thresh= 8.866E-04 alpha_mix =  0.700 |ddv_scf|^2 =  2.650E-07

      iter #   4 total cpu time :  1064.8 secs   av.it.:  17.2
      thresh= 5.147E-05 alpha_mix =  0.700 |ddv_scf|^2 =  3.225E-08

      iter #   5 total cpu time :  1075.0 secs   av.it.:  17.4
      thresh= 1.796E-05 alpha_mix =  0.700 |ddv_scf|^2 =  6.144E-09

      iter #   6 total cpu time :  1085.4 secs   av.it.:  17.8
      thresh= 7.838E-06 alpha_mix =  0.700 |ddv_scf|^2 =  1.382E-10

      iter #   7 total cpu time :  1095.8 secs   av.it.:  18.4
      thresh= 1.176E-06 alpha_mix =  0.700 |ddv_scf|^2 =  3.204E-11

      iter #   8 total cpu time :  1106.2 secs   av.it.:  17.8
      thresh= 5.661E-07 alpha_mix =  0.700 |ddv_scf|^2 =  1.561E-11

      iter #   9 total cpu time :  1116.1 secs   av.it.:  16.8
      thresh= 3.951E-07 alpha_mix =  0.700 |ddv_scf|^2 =  2.668E-13

     End of self-consistent calculation

     Convergence has been achieved 


     Representation # 10 mode #  10

     Self-consistent Calculation

      iter #   1 total cpu time :  1123.6 secs   av.it.:   9.5
      thresh= 1.000E-02 alpha_mix =  0.700 |ddv_scf|^2 =  4.574E-05

      iter #   2 total cpu time :  1133.6 secs   av.it.:  16.9
      thresh= 6.763E-04 alpha_mix =  0.700 |ddv_scf|^2 =  4.336E-04

      iter #   3 total cpu time :  1142.2 secs   av.it.:  14.0
      thresh= 2.082E-03 alpha_mix =  0.700 |ddv_scf|^2 =  2.094E-07

      iter #   4 total cpu time :  1152.5 secs   av.it.:  18.1
      thresh= 4.576E-05 alpha_mix =  0.700 |ddv_scf|^2 =  1.292E-07

      iter #   5 total cpu time :  1162.6 secs   av.it.:  17.0
      thresh= 3.594E-05 alpha_mix =  0.700 |ddv_scf|^2 =  5.622E-09

      iter #   6 total cpu time :  1173.1 secs   av.it.:  18.0
      thresh= 7.498E-06 alpha_mix =  0.700 |ddv_scf|^2 =  1.087E-09

      iter #   7 total cpu time :  1183.2 secs   av.it.:  17.6
      thresh= 3.297E-06 alpha_mix =  0.700 |ddv_scf|^2 =  3.332E-10

      iter #   8 total cpu time :  1193.3 secs   av.it.:  17.2
      thresh= 1.825E-06 alpha_mix =  0.700 |ddv_scf|^2 =  4.312E-10

      iter #   9 total cpu time :  1203.2 secs   av.it.:  16.0
      thresh= 2.076E-06 alpha_mix =  0.700 |ddv_scf|^2 =  2.328E-13

     End of self-consistent calculation

     Convergence has been achieved 


     Representation # 11 mode #  11

     Self-consistent Calculation

      iter #   1 total cpu time :  1211.2 secs   av.it.:  10.3
      thresh= 1.000E-02 alpha_mix =  0.700 |ddv_scf|^2 =  2.558E-06

      iter #   2 total cpu time :  1221.8 secs   av.it.:  18.2
      thresh= 1.600E-04 alpha_mix =  0.700 |ddv_scf|^2 =  5.576E-07

      iter #   3 total cpu time :  1232.4 secs   av.it.:  17.6
      thresh= 7.467E-05 alpha_mix =  0.700 |ddv_scf|^2 =  1.016E-09

      iter #   4 total cpu time :  1242.7 secs   av.it.:  18.4
      thresh= 3.188E-06 alpha_mix =  0.700 |ddv_scf|^2 =  4.274E-11

      iter #   5 total cpu time :  1253.1 secs   av.it.:  17.6
      thresh= 6.537E-07 alpha_mix =  0.700 |ddv_scf|^2 =  1.243E-12

      iter #   6 total cpu time :  1263.4 secs   av.it.:  17.6
      thresh= 1.115E-07 alpha_mix =  0.700 |ddv_scf|^2 =  2.311E-14

     End of self-consistent calculation

     Convergence has been achieved 


     Representation # 12 mode #  12

     Self-consistent Calculation

      iter #   1 total cpu time :  1270.5 secs   av.it.:   8.5
      thresh= 1.000E-02 alpha_mix =  0.700 |ddv_scf|^2 =  6.125E-07

      iter #   2 total cpu time :  1280.9 secs   av.it.:  18.1
      thresh= 7.826E-05 alpha_mix =  0.700 |ddv_scf|^2 =  5.645E-08

      iter #   3 total cpu time :  1291.7 secs   av.it.:  17.9
      thresh= 2.376E-05 alpha_mix =  0.700 |ddv_scf|^2 =  1.279E-09

      iter #   4 total cpu time :  1301.8 secs   av.it.:  17.9
      thresh= 3.576E-06 alpha_mix =  0.700 |ddv_scf|^2 =  1.233E-11

      iter #   5 total cpu time :  1312.0 secs   av.it.:  16.9
      thresh= 3.511E-07 alpha_mix =  0.700 |ddv_scf|^2 =  2.838E-13

     End of self-consistent calculation

     Convergence has been achieved 


     Representation # 13 mode #  13

     Self-consistent Calculation

      iter #   1 total cpu time :  1318.9 secs   av.it.:   7.8
      thresh= 1.000E-02 alpha_mix =  0.700 |ddv_scf|^2 =  3.205E-07

      iter #   2 total cpu time :  1329.6 secs   av.it.:  17.6
      thresh= 5.661E-05 alpha_mix =  0.700 |ddv_scf|^2 =  4.739E-08

      iter #   3 total cpu time :  1340.0 secs   av.it.:  17.6
      thresh= 2.177E-05 alpha_mix =  0.700 |ddv_scf|^2 =  6.822E-10

      iter #   4 total cpu time :  1350.2 secs   av.it.:  17.8
      thresh= 2.612E-06 alpha_mix =  0.700 |ddv_scf|^2 =  3.265E-11

      iter #   5 total cpu time :  1360.6 secs   av.it.:  17.9
      thresh= 5.714E-07 alpha_mix =  0.700 |ddv_scf|^2 =  7.209E-13

     End of self-consistent calculation

     Convergence has been achieved 


     Representation # 14 mode #  14

     Self-consistent Calculation

      iter #   1 total cpu time :  1367.8 secs   av.it.:   9.1
      thresh= 1.000E-02 alpha_mix =  0.700 |ddv_scf|^2 =  7.533E-07

      iter #   2 total cpu time :  1378.2 secs   av.it.:  18.2
      thresh= 8.679E-05 alpha_mix =  0.700 |ddv_scf|^2 =  1.044E-07

      iter #   3 total cpu time :  1388.4 secs   av.it.:  17.8
      thresh= 3.232E-05 alpha_mix =  0.700 |ddv_scf|^2 =  8.875E-10

      iter #   4 total cpu time :  1398.5 secs   av.it.:  17.7
      thresh= 2.979E-06 alpha_mix =  0.700 |ddv_scf|^2 =  1.492E-11

      iter #   5 total cpu time :  1409.0 secs   av.it.:  17.7
      thresh= 3.862E-07 alpha_mix =  0.700 |ddv_scf|^2 =  1.048E-12

      iter #   6 total cpu time :  1419.0 secs   av.it.:  17.7
      thresh= 1.024E-07 alpha_mix =  0.700 |ddv_scf|^2 =  1.425E-14

     End of self-consistent calculation

     Convergence has been achieved 


     Representation # 15 mode #  15

     Self-consistent Calculation

      iter #   1 total cpu time :  1426.2 secs   av.it.:   8.6
      thresh= 1.000E-02 alpha_mix =  0.700 |ddv_scf|^2 =  6.082E-07

      iter #   2 total cpu time :  1436.7 secs   av.it.:  18.0
      thresh= 7.799E-05 alpha_mix =  0.700 |ddv_scf|^2 =  5.457E-08

      iter #   3 total cpu time :  1447.1 secs   av.it.:  17.9
      thresh= 2.336E-05 alpha_mix =  0.700 |ddv_scf|^2 =  1.262E-09

      iter #   4 total cpu time :  1457.3 secs   av.it.:  17.8
      thresh= 3.552E-06 alpha_mix =  0.700 |ddv_scf|^2 =  1.335E-11

      iter #   5 total cpu time :  1467.3 secs   av.it.:  17.6
      thresh= 3.654E-07 alpha_mix =  0.700 |ddv_scf|^2 =  8.985E-13

     End of self-consistent calculation

     Convergence has been achieved 
 
     Number of q in the star =    4
     List of q in the star:
          1   0.000000000   0.000000000   0.247184234
          2   0.000000000   0.000000000  -0.247184234
          3   0.000000000   0.247184234   0.000000000
          4   0.000000000  -0.247184234   0.000000000

     Diagonalizing the dynamical matrix

     q = (    0.000000000   0.000000000   0.247184234 ) 

 **************************************************************************
     freq (    1) =      -0.319695 [THz] =     -10.663889 [cm-1]
     freq (    2) =       2.010893 [THz] =      67.076177 [cm-1]
     freq (    3) =       2.982744 [THz] =      99.493634 [cm-1]
     freq (    4) =       3.156516 [THz] =     105.290045 [cm-1]
     freq (    5) =       4.499910 [THz] =     150.100840 [cm-1]
     freq (    6) =       5.118048 [THz] =     170.719688 [cm-1]
     freq (    7) =       6.278685 [THz] =     209.434389 [cm-1]
     freq (    8) =       8.384978 [THz] =     279.692772 [cm-1]
     freq (    9) =       8.974673 [THz] =     299.362870 [cm-1]
     freq (   10) =       9.133604 [THz] =     304.664250 [cm-1]
     freq (   11) =      10.037269 [THz] =     334.807254 [cm-1]
     freq (   12) =      13.508588 [THz] =     450.597994 [cm-1]
     freq (   13) =      14.209174 [THz] =     473.967023 [cm-1]
     freq (   14) =      15.712597 [THz] =     524.115824 [cm-1]
     freq (   15) =      20.268478 [THz] =     676.083665 [cm-1]
 **************************************************************************

     Mode symmetry, C_s (m)     point group:

     freq (  1 -  1) =        -10.7  [cm-1]   --> A''                
     freq (  2 -  2) =         67.1  [cm-1]   --> A'                 
     freq (  3 -  3) =         99.5  [cm-1]   --> A''                
     freq (  4 -  4) =        105.3  [cm-1]   --> A'                 
     freq (  5 -  5) =        150.1  [cm-1]   --> A'                 
     freq (  6 -  6) =        170.7  [cm-1]   --> A''                
     freq (  7 -  7) =        209.4  [cm-1]   --> A'                 
     freq (  8 -  8) =        279.7  [cm-1]   --> A'                 
     freq (  9 -  9) =        299.4  [cm-1]   --> A'                 
     freq ( 10 - 10) =        304.7  [cm-1]   --> A''                
     freq ( 11 - 11) =        334.8  [cm-1]   --> A'                 
     freq ( 12 - 12) =        450.6  [cm-1]   --> A''                
     freq ( 13 - 13) =        474.0  [cm-1]   --> A'                 
     freq ( 14 - 14) =        524.1  [cm-1]   --> A'                 
     freq ( 15 - 15) =        676.1  [cm-1]   --> A'                 

     Calculation of q =    0.0000000   0.0000000  -0.4943685

   Info: using nr1, nr2, nr3 values from input

   Info: using nr1, nr2, nr3 values from input
 
     Parallelization info
     --------------------
     sticks:   dense  smooth     PW     G-vecs:    dense   smooth      PW
     Min         131      65     19                 5913     2089     329
     Max         132      66     20                 5918     2092     330
     Sum        3687    1843    535               165629    58557    9215
 


     bravais-lattice index     =            0
     lattice parameter (alat)  =       7.4000  a.u.
     unit-cell volume          =     433.3637 (a.u.)^3
     number of atoms/cell      =            5
     number of atomic types    =            3
     number of electrons       =        40.00
     number of Kohn-Sham states=           24
     kinetic-energy cutoff     =     100.0000  Ry
     charge density cutoff     =     800.0000  Ry
     Exchange-correlation      =  SLA  PW   PBE  PBE ( 1  4  3  4 0 0)

     celldm(1)=   7.400000  celldm(2)=   0.000000  celldm(3)=   0.000000
     celldm(4)=   0.000000  celldm(5)=   0.000000  celldm(6)=   0.000000

     crystal axes: (cart. coord. in units of alat)
               a(1) = (   1.045488   0.000000   0.000000 )  
               a(2) = (   0.000000   1.011391   0.000000 )  
               a(3) = (   0.000000   0.000000   1.011391 )  

     reciprocal axes: (cart. coord. in units 2 pi/alat)
               b(1) = (  0.956491  0.000000  0.000000 )  
               b(2) = (  0.000000  0.988737  0.000000 )  
               b(3) = (  0.000000  0.000000  0.988737 )  


     PseudoPot. # 1 for O  read from file:
     ../../PSP_DIR/O.pbe-rrkjus.UPF
     MD5 check sum: 390ba29e75625707450f3bd3f0eb6be9
     Pseudo is Ultrasoft, Zval =  6.0
     Generated by new atomic code, or converted to UPF format
     Using radial grid of 1269 points,  4 beta functions with: 
                l(1) =   0
                l(2) =   0
                l(3) =   1
                l(4) =   1
     Q(r) pseudized with 0 coefficients 


     PseudoPot. # 2 for Ti read from file:
     ../../PSP_DIR/Ti.pbe-sp-van_ak.UPF
     MD5 check sum: 8e4df49b7f0d34bbd5052bf3f5ea0213
     Pseudo is Ultrasoft, Zval = 12.0
     Generated by new atomic code, or converted to UPF format
     Using radial grid of  851 points,  6 beta functions with: 
                l(1) =   0
                l(2) =   0
                l(3) =   1
                l(4) =   1
                l(5) =   2
                l(6) =   2
     Q(r) pseudized with  8 coefficients,  rinner =    1.000   1.000   1.000
                                                       1.000   1.000

     PseudoPot. # 3 for Ba read from file:
     ../../PSP_DIR/Ba.pbe-nsp-van.UPF
     MD5 check sum: a011de417d3466d8e94df216395bc359
     Pseudo is Ultrasoft + core correction, Zval = 10.0
     Generated by new atomic code, or converted to UPF format
     Using radial grid of  907 points,  6 beta functions with: 
                l(1) =   0
                l(2) =   0
                l(3) =   1
                l(4) =   1
                l(5) =   2
                l(6) =   2
     Q(r) pseudized with  6 coefficients,  rinner =    1.200   1.200   1.200
                                                       1.200   1.200

     atomic species   valence    mass     pseudopotential
        O              6.00    15.99000     O ( 1.00)
        Ti            12.00    47.88000     Ti( 1.00)
        Ba            10.00   137.33000     Ba( 1.00)

      8 Sym. Ops. (no inversion) found



   Cartesian axes

     site n.     atom                  positions (alat units)
         1           Ba  tau(   1) = (  -0.0243650   0.0000000   0.0000000  )
         2           Ti  tau(   2) = (   0.4894495   0.5056957   0.5056957  )
         3           O   tau(   3) = (   0.0228482   0.5056957   0.5056957  )
         4           O   tau(   4) = (   0.5349219   0.0000000   0.5056957  )
         5           O   tau(   5) = (   0.5349219   0.5056957   0.0000000  )

     number of k points=    54
                       cart. coord. in units 2pi/alat
        k(    1) = (   0.0797076   0.0823947   0.0823947), wk =   0.0740741
        k(    2) = (   0.0797076   0.0823947  -0.4119737), wk =   0.0000000
        k(    3) = (   0.0797076   0.0823947   0.2471842), wk =   0.0740741
        k(    4) = (   0.0797076   0.0823947  -0.2471842), wk =   0.0000000
        k(    5) = (   0.0797076   0.0823947   0.4119737), wk =   0.0740741
        k(    6) = (   0.0797076   0.0823947  -0.0823947), wk =   0.0000000
        k(    7) = (   0.0797076   0.2471842   0.2471842), wk =   0.0740741
        k(    8) = (   0.0797076   0.2471842  -0.2471842), wk =   0.0000000
        k(    9) = (   0.0797076   0.2471842   0.4119737), wk =   0.0740741
        k(   10) = (   0.0797076   0.2471842  -0.0823947), wk =   0.0000000
        k(   11) = (   0.0797076   0.4119737   0.4119737), wk =   0.0740741
        k(   12) = (   0.0797076   0.4119737  -0.0823947), wk =   0.0000000
        k(   13) = (   0.2391229   0.0823947   0.0823947), wk =   0.0740741
        k(   14) = (   0.2391229   0.0823947  -0.4119737), wk =   0.0000000
        k(   15) = (   0.2391229   0.0823947   0.2471842), wk =   0.0740741
        k(   16) = (   0.2391229   0.0823947  -0.2471842), wk =   0.0000000
        k(   17) = (   0.2391229   0.0823947   0.4119737), wk =   0.0740741
        k(   18) = (   0.2391229   0.0823947  -0.0823947), wk =   0.0000000
        k(   19) = (   0.2391229   0.2471842   0.2471842), wk =   0.0740741
        k(   20) = (   0.2391229   0.2471842  -0.2471842), wk =   0.0000000
        k(   21) = (   0.2391229   0.2471842   0.4119737), wk =   0.0740741
        k(   22) = (   0.2391229   0.2471842  -0.0823947), wk =   0.0000000
        k(   23) = (   0.2391229   0.4119737   0.4119737), wk =   0.0740741
        k(   24) = (   0.2391229   0.4119737  -0.0823947), wk =   0.0000000
        k(   25) = (   0.3985381   0.0823947   0.0823947), wk =   0.0740741
        k(   26) = (   0.3985381   0.0823947  -0.4119737), wk =   0.0000000
        k(   27) = (   0.3985381   0.0823947   0.2471842), wk =   0.0740741
        k(   28) = (   0.3985381   0.0823947  -0.2471842), wk =   0.0000000
        k(   29) = (   0.3985381   0.0823947   0.4119737), wk =   0.0740741
        k(   30) = (   0.3985381   0.0823947  -0.0823947), wk =   0.0000000
        k(   31) = (   0.3985381   0.2471842   0.2471842), wk =   0.0740741
        k(   32) = (   0.3985381   0.2471842  -0.2471842), wk =   0.0000000
        k(   33) = (   0.3985381   0.2471842   0.4119737), wk =   0.0740741
        k(   34) = (   0.3985381   0.2471842  -0.0823947), wk =   0.0000000
        k(   35) = (   0.3985381   0.4119737   0.4119737), wk =   0.0740741
        k(   36) = (   0.3985381   0.4119737  -0.0823947), wk =   0.0000000
        k(   37) = (   0.0797076   0.2471842  -0.0823947), wk =   0.0740741
        k(   38) = (   0.0797076   0.2471842  -0.5767632), wk =   0.0000000
        k(   39) = (   0.0797076   0.4119737  -0.0823947), wk =   0.0740741
        k(   40) = (   0.0797076   0.4119737  -0.5767632), wk =   0.0000000
        k(   41) = (   0.0797076   0.4119737  -0.2471842), wk =   0.0740741
        k(   42) = (   0.0797076   0.4119737  -0.7415527), wk =   0.0000000
        k(   43) = (   0.2391229   0.2471842  -0.0823947), wk =   0.0740741
        k(   44) = (   0.2391229   0.2471842  -0.5767632), wk =   0.0000000
        k(   45) = (   0.2391229   0.4119737  -0.0823947), wk =   0.0740741
        k(   46) = (   0.2391229   0.4119737  -0.5767632), wk =   0.0000000
        k(   47) = (   0.2391229   0.4119737  -0.2471842), wk =   0.0740741
        k(   48) = (   0.2391229   0.4119737  -0.7415527), wk =   0.0000000
        k(   49) = (   0.3985381   0.2471842  -0.0823947), wk =   0.0740741
        k(   50) = (   0.3985381   0.2471842  -0.5767632), wk =   0.0000000
        k(   51) = (   0.3985381   0.4119737  -0.0823947), wk =   0.0740741
        k(   52) = (   0.3985381   0.4119737  -0.5767632), wk =   0.0000000
        k(   53) = (   0.3985381   0.4119737  -0.2471842), wk =   0.0740741
        k(   54) = (   0.3985381   0.4119737  -0.7415527), wk =   0.0000000

     Dense  grid:   165629 G-vectors     FFT dimensions: (  72,  72,  72)

     Smooth grid:    58557 G-vectors     FFT dimensions: (  50,  48,  48)

     Estimated max dynamical RAM per process >       5.69MB

     Estimated total allocated dynamical RAM >     159.22MB

     The potential is recalculated from file :
     ./_ph0/bto.save/charge-density.dat

     Starting wfc are   35 atomic wfcs

     Band Structure Calculation
     Davidson diagonalization with overlap

     ethr =  2.50E-11,  avg # of iterations = 19.8

     total cpu time spent up to now is       34.5 secs

     End of band structure calculation

          k = 0.0797 0.0824 0.0824 (  7301 PWs)   bands (ev):

   -46.1305 -22.4600 -22.3681 -22.3679 -14.3281  -6.5651  -5.9559  -5.8551
     0.4593   0.4787   0.5923   7.6581   7.8097   7.8516   8.4818   8.5037
     8.9488   9.3094   9.7549   9.8226  12.4948  12.8228  12.8399  14.8903

          k = 0.0797 0.0824-0.4120 (  7321 PWs)   bands (ev):

   -46.1294 -22.4578 -22.4185 -22.3659 -14.2187  -6.7208  -5.8966  -5.6269
     0.5502   0.6564   0.7876   6.3534   7.4482   7.5524   7.6911   8.0342
     8.6694   8.7495   9.1025   9.3013  12.8795  13.8399  13.8936  14.8817

          k = 0.0797 0.0824 0.2472 (  7306 PWs)   bands (ev):

   -46.1299 -22.4589 -22.3933 -22.3669 -14.2741  -6.6067  -5.9230  -5.7894
     0.4950   0.5252   0.7442   7.0137   7.5897   7.7318   8.1326   8.2142
     8.7430   8.9016   9.4842   9.5692  12.8371  13.2081  13.2473  14.9235

          k = 0.0797 0.0824-0.2472 (  7306 PWs)   bands (ev):

   -46.1299 -22.4589 -22.3933 -22.3669 -14.2741  -6.6067  -5.9230  -5.7894
     0.4950   0.5252   0.7442   7.0137   7.5897   7.7318   8.1326   8.2142
     8.7430   8.9016   9.4842   9.5692  12.8371  13.2081  13.2473  14.9235

          k = 0.0797 0.0824 0.4120 (  7321 PWs)   bands (ev):

   -46.1294 -22.4578 -22.4185 -22.3659 -14.2187  -6.7208  -5.8966  -5.6269
     0.5502   0.6564   0.7876   6.3534   7.4482   7.5524   7.6911   8.0342
     8.6694   8.7495   9.1025   9.3013  12.8795  13.8399  13.8936  14.8817

          k = 0.0797 0.0824-0.0824 (  7301 PWs)   bands (ev):

   -46.1305 -22.4600 -22.3681 -22.3679 -14.3281  -6.5651  -5.9559  -5.8551
     0.4593   0.4787   0.5923   7.6581   7.8097   7.8516   8.4818   8.5037
     8.9488   9.3094   9.7549   9.8226  12.4948  12.8228  12.8399  14.8903

          k = 0.0797 0.2472 0.2472 (  7324 PWs)   bands (ev):

   -46.1294 -22.4579 -22.3924 -22.3917 -14.2282  -6.5243  -5.8484  -5.8208
     0.3928   0.5115   0.8201   6.7331   7.2078   7.4831   7.7762   8.0121
     8.2245   9.1493   9.3158   9.7968  13.1370  13.3706  13.5720  15.2258

          k = 0.0797 0.2472-0.2472 (  7324 PWs)   bands (ev):

   -46.1294 -22.4579 -22.3924 -22.3917 -14.2282  -6.5243  -5.8484  -5.8208
     0.3928   0.5115   0.8201   6.7331   7.2078   7.4831   7.7762   8.0121
     8.2245   9.1493   9.3158   9.7968  13.1370  13.3706  13.5720  15.2258

          k = 0.0797 0.2472 0.4120 (  7337 PWs)   bands (ev):

   -46.1289 -22.4569 -22.4170 -22.3908 -14.1812  -6.5178  -5.8335  -5.7039
     0.3983   0.5295   0.7496   6.2664   6.9139   7.1241   7.5304   7.8331
     8.3858   8.9956   9.2061   9.8169  13.2687  13.9148  14.0373  15.1855

          k = 0.0797 0.2472-0.0824 (  7306 PWs)   bands (ev):

   -46.1299 -22.4589 -22.3933 -22.3669 -14.2741  -6.6067  -5.9230  -5.7894
     0.4950   0.5252   0.7442   7.0137   7.5897   7.7318   8.1326   8.2142
     8.7430   8.9016   9.4842   9.5692  12.8371  13.2081  13.2473  14.9235

          k = 0.0797 0.4120 0.4120 (  7324 PWs)   bands (ev):

   -46.1284 -22.4558 -22.4156 -22.4154 -14.1430  -6.3112  -5.7833  -5.7629
     0.3045   0.3599   0.7279   6.0713   6.5024   6.5675   7.5341   7.5824
     8.3366   9.1919   9.3157  10.1889  13.8875  13.9766  14.3352  15.1067

          k = 0.0797 0.4120-0.0824 (  7321 PWs)   bands (ev):

   -46.1294 -22.4578 -22.4185 -22.3659 -14.2187  -6.7208  -5.8966  -5.6269
     0.5502   0.6564   0.7876   6.3534   7.4482   7.5524   7.6911   8.0342
     8.6694   8.7495   9.1025   9.3013  12.8795  13.8399  13.8936  14.8817

          k = 0.2391 0.0824 0.0824 (  7302 PWs)   bands (ev):

   -46.1301 -22.4775 -22.3673 -22.3672 -14.2859  -6.5969  -5.9189  -5.8441
     0.5115   0.5318   0.7467   6.9982   7.6019   7.7078   8.1570   8.2075
     8.8853   8.9858   9.5568   9.6765  12.5317  13.3212  13.3518  14.8841

          k = 0.2391 0.0824-0.4120 (  7321 PWs)   bands (ev):

   -46.1291 -22.4748 -22.4174 -22.3653 -14.1915  -6.5206  -5.9016  -5.7009
     0.4579   0.5562   0.7853   6.2845   6.8651   7.1747   7.5363   7.9450
     8.5205   9.0162   9.1446   9.6048  13.3972  13.8775  14.0073  15.4326

          k = 0.2391 0.0824 0.2472 (  7308 PWs)   bands (ev):

   -46.1296 -22.4761 -22.3924 -22.3663 -14.2393  -6.5108  -5.9440  -5.7933
     0.4361   0.5324   0.8292   6.7697   7.0761   7.5361   7.7981   8.0202
     8.6089   9.1031   9.3021   9.6317  13.2090  13.3962  13.5291  15.3571

          k = 0.2391 0.0824-0.2472 (  7308 PWs)   bands (ev):

   -46.1296 -22.4761 -22.3924 -22.3663 -14.2393  -6.5108  -5.9440  -5.7933
     0.4361   0.5324   0.8292   6.7697   7.0761   7.5361   7.7981   8.0202
     8.6089   9.1031   9.3021   9.6317  13.2090  13.3962  13.5291  15.3571

          k = 0.2391 0.0824 0.4120 (  7321 PWs)   bands (ev):

   -46.1291 -22.4748 -22.4174 -22.3653 -14.1915  -6.5206  -5.9016  -5.7009
     0.4579   0.5562   0.7853   6.2845   6.8651   7.1747   7.5363   7.9450
     8.5205   9.0162   9.1446   9.6048  13.3972  13.8775  14.0073  15.4326

          k = 0.2391 0.0824-0.0824 (  7302 PWs)   bands (ev):

   -46.1301 -22.4775 -22.3673 -22.3672 -14.2859  -6.5969  -5.9189  -5.8441
     0.5115   0.5318   0.7467   6.9982   7.6019   7.7078   8.1570   8.2075
     8.8853   8.9858   9.5568   9.6765  12.5317  13.3212  13.3518  14.8841

          k = 0.2391 0.2472 0.2472 (  7330 PWs)   bands (ev):

   -46.1291 -22.4749 -22.3915 -22.3909 -14.1980  -6.3763  -5.8933  -5.7849
     0.2730   0.3285   0.8678   6.5531   7.1061   7.1813   7.7553   7.8873
     7.9199   9.3928   9.4061   9.6488  13.5418  13.6252  13.6860  16.2531

          k = 0.2391 0.2472-0.2472 (  7330 PWs)   bands (ev):

   -46.1291 -22.4749 -22.3915 -22.3909 -14.1980  -6.3763  -5.8933  -5.7849
     0.2730   0.3285   0.8678   6.5531   7.1061   7.1813   7.7553   7.8873
     7.9199   9.3928   9.4061   9.6488  13.5418  13.6252  13.6860  16.2531

          k = 0.2391 0.2472 0.4120 (  7328 PWs)   bands (ev):

   -46.1286 -22.4737 -22.4160 -22.3900 -14.1559  -6.3173  -5.8197  -5.7139
     0.1827   0.2783   0.6689   6.2284   6.9058   7.1275   7.3140   7.8136
     7.9917   9.2566   9.5063   9.7516  13.6819  14.0618  14.1218  16.1979

          k = 0.2391 0.2472-0.0824 (  7308 PWs)   bands (ev):

   -46.1296 -22.4761 -22.3924 -22.3663 -14.2393  -6.5108  -5.9440  -5.7933
     0.4361   0.5324   0.8292   6.7697   7.0761   7.5361   7.7981   8.0202
     8.6089   9.1031   9.3021   9.6317  13.2090  13.3962  13.5291  15.3571

          k = 0.2391 0.4120 0.4120 (  7332 PWs)   bands (ev):

   -46.1281 -22.4725 -22.4147 -22.4145 -14.1197  -6.1179  -5.7282  -5.7226
     0.0497   0.0569   0.3927   6.0491   6.5732   7.0434   7.3088   7.7743
     7.8366   9.4543   9.5464  10.1645  14.1481  14.1767  14.4054  16.1899

          k = 0.2391 0.4120-0.0824 (  7321 PWs)   bands (ev):

   -46.1291 -22.4748 -22.4174 -22.3653 -14.1915  -6.5206  -5.9016  -5.7009
     0.4579   0.5562   0.7853   6.2845   6.8651   7.1747   7.5363   7.9450
     8.5205   9.0162   9.1446   9.6048  13.3972  13.8775  14.0073  15.4326

          k = 0.3985 0.0824 0.0824 (  7306 PWs)   bands (ev):

   -46.1298 -22.4948 -22.3666 -22.3665 -14.2429  -6.6915  -5.8330  -5.8052
     0.5446   0.6509   0.8491   6.3714   7.4157   7.5486   7.7855   8.0360
     8.7412   8.8637   9.3751   9.5490  12.5661  13.8159  13.8607  14.8815

          k = 0.3985 0.0824-0.4120 (  7312 PWs)   bands (ev):

   -46.1288 -22.4916 -22.4162 -22.3647 -14.1639  -6.2727  -5.9572  -5.7656
     0.3790   0.4686   0.7718   6.1562   6.4307   6.6936   7.4913   7.7422
     8.4448   9.2126   9.3607   9.9205  13.8864  13.9229  14.2126  15.5831

          k = 0.3985 0.0824 0.2472 (  7313 PWs)   bands (ev):

   -46.1293 -22.4933 -22.3915 -22.3656 -14.2038  -6.4782  -5.9013  -5.7878
     0.4246   0.6105   0.7847   6.3332   6.7674   7.2827   7.5870   7.8585
     8.7405   8.9985   9.2986   9.6020  13.2694  13.8599  13.9250  15.4320

          k = 0.3985 0.0824-0.2472 (  7313 PWs)   bands (ev):

   -46.1293 -22.4933 -22.3915 -22.3656 -14.2038  -6.4782  -5.9013  -5.7878
     0.4246   0.6105   0.7847   6.3332   6.7674   7.2827   7.5870   7.8585
     8.7405   8.9985   9.2986   9.6020  13.2694  13.8599  13.9250  15.4320

          k = 0.3985 0.0824 0.4120 (  7312 PWs)   bands (ev):

   -46.1288 -22.4916 -22.4162 -22.3647 -14.1639  -6.2727  -5.9572  -5.7656
     0.3790   0.4686   0.7718   6.1562   6.4307   6.6936   7.4913   7.7422
     8.4448   9.2126   9.3607   9.9205  13.8864  13.9229  14.2126  15.5831

          k = 0.3985 0.0824-0.0824 (  7306 PWs)   bands (ev):

   -46.1298 -22.4948 -22.3666 -22.3665 -14.2429  -6.6915  -5.8330  -5.8052
     0.5446   0.6509   0.8491   6.3714   7.4157   7.5486   7.7855   8.0360
     8.7412   8.8637   9.3751   9.5490  12.5661  13.8159  13.8607  14.8815

          k = 0.3985 0.2472 0.2472 (  7317 PWs)   bands (ev):

   -46.1288 -22.4918 -22.3906 -22.3901 -14.1674  -6.2594  -5.9012  -5.7481
     0.1540   0.3552   0.6867   6.3183   6.7584   7.1674   7.3674   7.8891
     8.0832   9.4715   9.5159   9.5558  13.6912  13.9716  14.0387  16.4308

          k = 0.3985 0.2472-0.2472 (  7317 PWs)   bands (ev):

   -46.1288 -22.4918 -22.3906 -22.3901 -14.1674  -6.2594  -5.9012  -5.7481
     0.1540   0.3552   0.6867   6.3183   6.7584   7.1674   7.3674   7.8891
     8.0832   9.4715   9.5159   9.5558  13.6912  13.9716  14.0387  16.4308

          k = 0.3985 0.2472 0.4120 (  7320 PWs)   bands (ev):

   -46.1283 -22.4904 -22.4150 -22.3893 -14.1303  -6.0601  -5.8682  -5.7121
     0.0572   0.1344   0.4109   6.1126   6.6165   7.0522   7.2572   7.8110
     7.9116   9.5063   9.7239   9.8862  14.0782  14.1676  14.3156  16.6486

          k = 0.3985 0.2472-0.0824 (  7313 PWs)   bands (ev):

   -46.1293 -22.4933 -22.3915 -22.3656 -14.2038  -6.4782  -5.9013  -5.7878
     0.4246   0.6105   0.7847   6.3332   6.7674   7.2827   7.5870   7.8585
     8.7405   8.9985   9.2986   9.6020  13.2694  13.8599  13.9250  15.4320

          k = 0.3985 0.4120 0.4120 (  7317 PWs)   bands (ev):

   -46.1278 -22.4891 -22.4138 -22.4137 -14.0962  -5.8939  -5.7140  -5.6588
    -0.1925  -0.1490   0.0248   5.9375   6.5793   6.6502   7.6224   7.8553
     7.8934   9.8265   9.8718  10.1381  14.4053  14.4082  14.4890  16.8700

          k = 0.3985 0.4120-0.0824 (  7312 PWs)   bands (ev):

   -46.1288 -22.4916 -22.4162 -22.3647 -14.1639  -6.2727  -5.9572  -5.7656
     0.3790   0.4686   0.7718   6.1562   6.4307   6.6936   7.4913   7.7422
     8.4448   9.2126   9.3607   9.9205  13.8864  13.9229  14.2126  15.5831

          k = 0.0797 0.2472-0.0824 (  7306 PWs)   bands (ev):

   -46.1299 -22.4589 -22.3933 -22.3669 -14.2741  -6.6067  -5.9230  -5.7894
     0.4950   0.5252   0.7442   7.0137   7.5897   7.7318   8.1326   8.2142
     8.7430   8.9016   9.4842   9.5692  12.8371  13.2081  13.2473  14.9235

          k = 0.0797 0.2472-0.5768 (  7337 PWs)   bands (ev):

   -46.1289 -22.4569 -22.4170 -22.3908 -14.1812  -6.5178  -5.8335  -5.7039
     0.3983   0.5295   0.7496   6.2664   6.9139   7.1241   7.5304   7.8331
     8.3858   8.9956   9.2061   9.8169  13.2687  13.9148  14.0373  15.1855

          k = 0.0797 0.4120-0.0824 (  7321 PWs)   bands (ev):

   -46.1294 -22.4578 -22.4185 -22.3659 -14.2187  -6.7208  -5.8966  -5.6269
     0.5502   0.6564   0.7876   6.3534   7.4482   7.5524   7.6911   8.0342
     8.6694   8.7495   9.1025   9.3013  12.8795  13.8399  13.8936  14.8817

          k = 0.0797 0.4120-0.5768 (  7324 PWs)   bands (ev):

   -46.1284 -22.4558 -22.4156 -22.4154 -14.1430  -6.3112  -5.7833  -5.7629
     0.3045   0.3599   0.7279   6.0713   6.5024   6.5675   7.5341   7.5824
     8.3366   9.1919   9.3157  10.1889  13.8875  13.9766  14.3352  15.1067

          k = 0.0797 0.4120-0.2472 (  7337 PWs)   bands (ev):

   -46.1289 -22.4569 -22.4170 -22.3908 -14.1812  -6.5178  -5.8335  -5.7039
     0.3983   0.5295   0.7496   6.2664   6.9139   7.1241   7.5304   7.8331
     8.3858   8.9956   9.2061   9.8169  13.2687  13.9148  14.0373  15.1855

          k = 0.0797 0.4120-0.7416 (  7337 PWs)   bands (ev):

   -46.1289 -22.4569 -22.4170 -22.3908 -14.1812  -6.5178  -5.8335  -5.7039
     0.3983   0.5295   0.7496   6.2664   6.9139   7.1241   7.5304   7.8331
     8.3858   8.9956   9.2061   9.8169  13.2687  13.9148  14.0373  15.1855

          k = 0.2391 0.2472-0.0824 (  7308 PWs)   bands (ev):

   -46.1296 -22.4761 -22.3924 -22.3663 -14.2393  -6.5108  -5.9440  -5.7933
     0.4361   0.5324   0.8292   6.7697   7.0761   7.5361   7.7981   8.0202
     8.6089   9.1031   9.3021   9.6317  13.2090  13.3962  13.5291  15.3571

          k = 0.2391 0.2472-0.5768 (  7328 PWs)   bands (ev):

   -46.1286 -22.4737 -22.4160 -22.3900 -14.1559  -6.3173  -5.8197  -5.7139
     0.1827   0.2783   0.6689   6.2284   6.9058   7.1275   7.3140   7.8136
     7.9917   9.2566   9.5063   9.7516  13.6819  14.0618  14.1218  16.1979

          k = 0.2391 0.4120-0.0824 (  7321 PWs)   bands (ev):

   -46.1291 -22.4748 -22.4174 -22.3653 -14.1915  -6.5206  -5.9016  -5.7009
     0.4579   0.5562   0.7853   6.2845   6.8651   7.1747   7.5363   7.9450
     8.5205   9.0162   9.1446   9.6048  13.3972  13.8775  14.0073  15.4326

          k = 0.2391 0.4120-0.5768 (  7332 PWs)   bands (ev):

   -46.1281 -22.4725 -22.4147 -22.4145 -14.1197  -6.1179  -5.7282  -5.7226
     0.0497   0.0569   0.3927   6.0491   6.5732   7.0434   7.3088   7.7743
     7.8366   9.4543   9.5464  10.1645  14.1481  14.1767  14.4054  16.1899

          k = 0.2391 0.4120-0.2472 (  7328 PWs)   bands (ev):

   -46.1286 -22.4737 -22.4160 -22.3900 -14.1559  -6.3173  -5.8197  -5.7139
     0.1827   0.2783   0.6689   6.2284   6.9058   7.1275   7.3140   7.8136
     7.9917   9.2566   9.5063   9.7516  13.6819  14.0618  14.1218  16.1979

          k = 0.2391 0.4120-0.7416 (  7328 PWs)   bands (ev):

   -46.1286 -22.4737 -22.4160 -22.3900 -14.1559  -6.3173  -5.8197  -5.7139
     0.1827   0.2783   0.6689   6.2284   6.9058   7.1275   7.3140   7.8136
     7.9917   9.2566   9.5063   9.7516  13.6819  14.0618  14.1218  16.1979

          k = 0.3985 0.2472-0.0824 (  7313 PWs)   bands (ev):

   -46.1293 -22.4933 -22.3915 -22.3656 -14.2038  -6.4782  -5.9013  -5.7878
     0.4246   0.6105   0.7847   6.3332   6.7674   7.2827   7.5870   7.8585
     8.7405   8.9985   9.2986   9.6020  13.2694  13.8599  13.9250  15.4320

          k = 0.3985 0.2472-0.5768 (  7320 PWs)   bands (ev):

   -46.1283 -22.4904 -22.4150 -22.3893 -14.1303  -6.0601  -5.8682  -5.7121
     0.0572   0.1344   0.4109   6.1126   6.6165   7.0522   7.2572   7.8110
     7.9116   9.5063   9.7239   9.8862  14.0782  14.1676  14.3156  16.6486

          k = 0.3985 0.4120-0.0824 (  7312 PWs)   bands (ev):

   -46.1288 -22.4916 -22.4162 -22.3647 -14.1639  -6.2727  -5.9572  -5.7656
     0.3790   0.4686   0.7718   6.1562   6.4307   6.6936   7.4913   7.7422
     8.4448   9.2126   9.3607   9.9205  13.8864  13.9229  14.2126  15.5831

          k = 0.3985 0.4120-0.5768 (  7317 PWs)   bands (ev):

   -46.1278 -22.4891 -22.4138 -22.4137 -14.0962  -5.8939  -5.7140  -5.6588
    -0.1925  -0.1490   0.0248   5.9375   6.5793   6.6502   7.6224   7.8553
     7.8934   9.8265   9.8718  10.1381  14.4053  14.4082  14.4890  16.8700

          k = 0.3985 0.4120-0.2472 (  7320 PWs)   bands (ev):

   -46.1283 -22.4904 -22.4150 -22.3893 -14.1303  -6.0601  -5.8682  -5.7121
     0.0572   0.1344   0.4109   6.1126   6.6165   7.0522   7.2572   7.8110
     7.9116   9.5063   9.7239   9.8862  14.0782  14.1676  14.3156  16.6486

          k = 0.3985 0.4120-0.7416 (  7320 PWs)   bands (ev):

   -46.1283 -22.4904 -22.4150 -22.3893 -14.1303  -6.0601  -5.8682  -5.7121
     0.0572   0.1344   0.4109   6.1126   6.6165   7.0522   7.2572   7.8110
     7.9116   9.5063   9.7239   9.8862  14.0782  14.1676  14.3156  16.6486

     highest occupied, lowest unoccupied level (ev):    10.1889   12.4948

     Writing output data file bto.save

                                                                                

     bravais-lattice index     =            0
     lattice parameter (alat)  =       7.4000  a.u.
     unit-cell volume          =     433.3637 (a.u.)^3
     number of atoms/cell      =            5
     number of atomic types    =            3
     kinetic-energy cut-off    =     100.0000  Ry
     charge density cut-off    =     800.0000  Ry
     convergence threshold     =      1.0E-12
     beta                      =       0.7000
     number of iterations used =            4
     Exchange-correlation      =  SLA  PW   PBE  PBE ( 1  4  3  4 0 0)


[...]

      iter #   3 total cpu time :  3164.1 secs   av.it.:  17.6
      thresh= 6.565E-05 alpha_mix =  0.700 |ddv_scf|^2 =  1.570E-07

      iter #   4 total cpu time :  3175.4 secs   av.it.:  16.9
      thresh= 3.963E-05 alpha_mix =  0.700 |ddv_scf|^2 =  6.180E-09

      iter #   5 total cpu time :  3187.3 secs   av.it.:  17.3
      thresh= 7.861E-06 alpha_mix =  0.700 |ddv_scf|^2 =  8.561E-12

      iter #   6 total cpu time :  3198.6 secs   av.it.:  17.2
      thresh= 2.926E-07 alpha_mix =  0.700 |ddv_scf|^2 =  4.022E-13

     End of self-consistent calculation

     Convergence has been achieved 
 
     Number of q in the star =    4
     List of q in the star:
          1   0.000000000   0.247184234   0.247184234
          2   0.000000000  -0.247184234  -0.247184234
          3   0.000000000   0.247184234  -0.247184234
          4   0.000000000  -0.247184234   0.247184234

     Diagonalizing the dynamical matrix

     q = (    0.000000000   0.247184234   0.247184234 ) 

 **************************************************************************
     freq (    1) =       2.039481 [THz] =      68.029766 [cm-1]
     freq (    2) =       2.393959 [THz] =      79.853872 [cm-1]
     freq (    3) =       3.158356 [THz] =     105.351411 [cm-1]
     freq (    4) =       5.416631 [THz] =     180.679353 [cm-1]
     freq (    5) =       5.503828 [THz] =     183.587928 [cm-1]
     freq (    6) =       6.914140 [THz] =     230.630888 [cm-1]
     freq (    7) =       7.226221 [THz] =     241.040793 [cm-1]
     freq (    8) =       8.775345 [THz] =     292.714014 [cm-1]
     freq (    9) =       9.642569 [THz] =     321.641477 [cm-1]
     freq (   10) =       9.974903 [THz] =     332.726957 [cm-1]
     freq (   11) =      10.406819 [THz] =     347.134114 [cm-1]
     freq (   12) =      13.638139 [THz] =     454.919358 [cm-1]
     freq (   13) =      14.348790 [THz] =     478.624127 [cm-1]
     freq (   14) =      15.425099 [THz] =     514.525908 [cm-1]
     freq (   15) =      21.030537 [THz] =     701.503191 [cm-1]
 **************************************************************************

     Mode symmetry, C_s (m)     point group:

     freq (  1 -  1) =         68.0  [cm-1]   --> A''                
     freq (  2 -  2) =         79.9  [cm-1]   --> A'                 
     freq (  3 -  3) =        105.4  [cm-1]   --> A'                 
     freq (  4 -  4) =        180.7  [cm-1]   --> A''                
     freq (  5 -  5) =        183.6  [cm-1]   --> A'                 
     freq (  6 -  6) =        230.6  [cm-1]   --> A'                 
     freq (  7 -  7) =        241.0  [cm-1]   --> A''                
     freq (  8 -  8) =        292.7  [cm-1]   --> A''                
     freq (  9 -  9) =        321.6  [cm-1]   --> A''                
     freq ( 10 - 10) =        332.7  [cm-1]   --> A'                 
     freq ( 11 - 11) =        347.1  [cm-1]   --> A'                 
     freq ( 12 - 12) =        454.9  [cm-1]   --> A''                
     freq ( 13 - 13) =        478.6  [cm-1]   --> A'                 
     freq ( 14 - 14) =        514.5  [cm-1]   --> A'                 
     freq ( 15 - 15) =        701.5  [cm-1]   --> A'                 

     Calculation of q =    0.0000000   0.2471842  -0.4943685

   Info: using nr1, nr2, nr3 values from input

   Info: using nr1, nr2, nr3 values from input
 
     Parallelization info
     --------------------
     sticks:   dense  smooth     PW     G-vecs:    dense   smooth      PW
     Min         131      65     19                 5913     2089     333
     Max         132      66     21                 5918     2092     336
     Sum        3687    1843    539               165629    58557    9335
 


     bravais-lattice index     =            0
     lattice parameter (alat)  =       7.4000  a.u.
     unit-cell volume          =     433.3637 (a.u.)^3
     number of atoms/cell      =            5
     number of atomic types    =            3
     number of electrons       =        40.00
     number of Kohn-Sham states=           24
     kinetic-energy cutoff     =     100.0000  Ry
     charge density cutoff     =     800.0000  Ry
     Exchange-correlation      =  SLA  PW   PBE  PBE ( 1  4  3  4 0 0)

     celldm(1)=   7.400000  celldm(2)=   0.000000  celldm(3)=   0.000000
     celldm(4)=   0.000000  celldm(5)=   0.000000  celldm(6)=   0.000000

     crystal axes: (cart. coord. in units of alat)
               a(1) = (   1.045488   0.000000   0.000000 )  
               a(2) = (   0.000000   1.011391   0.000000 )  
               a(3) = (   0.000000   0.000000   1.011391 )  

     reciprocal axes: (cart. coord. in units 2 pi/alat)
               b(1) = (  0.956491  0.000000  0.000000 )  
               b(2) = (  0.000000  0.988737  0.000000 )  
               b(3) = (  0.000000  0.000000  0.988737 )  


     PseudoPot. # 1 for O  read from file:
     ../../PSP_DIR/O.pbe-rrkjus.UPF
     MD5 check sum: 390ba29e75625707450f3bd3f0eb6be9
     Pseudo is Ultrasoft, Zval =  6.0
     Generated by new atomic code, or converted to UPF format
     Using radial grid of 1269 points,  4 beta functions with: 
                l(1) =   0
                l(2) =   0
                l(3) =   1
                l(4) =   1
     Q(r) pseudized with 0 coefficients 


     PseudoPot. # 2 for Ti read from file:
     ../../PSP_DIR/Ti.pbe-sp-van_ak.UPF
     MD5 check sum: 8e4df49b7f0d34bbd5052bf3f5ea0213
     Pseudo is Ultrasoft, Zval = 12.0
     Generated by new atomic code, or converted to UPF format
     Using radial grid of  851 points,  6 beta functions with: 
                l(1) =   0
                l(2) =   0
                l(3) =   1
                l(4) =   1
                l(5) =   2
                l(6) =   2
     Q(r) pseudized with  8 coefficients,  rinner =    1.000   1.000   1.000
                                                       1.000   1.000

     PseudoPot. # 3 for Ba read from file:
     ../../PSP_DIR/Ba.pbe-nsp-van.UPF
     MD5 check sum: a011de417d3466d8e94df216395bc359
     Pseudo is Ultrasoft + core correction, Zval = 10.0
     Generated by new atomic code, or converted to UPF format
     Using radial grid of  907 points,  6 beta functions with: 
                l(1) =   0
                l(2) =   0
                l(3) =   1
                l(4) =   1
                l(5) =   2
                l(6) =   2
     Q(r) pseudized with  6 coefficients,  rinner =    1.200   1.200   1.200
                                                       1.200   1.200

     atomic species   valence    mass     pseudopotential
        O              6.00    15.99000     O ( 1.00)
        Ti            12.00    47.88000     Ti( 1.00)
        Ba            10.00   137.33000     Ba( 1.00)

      8 Sym. Ops. (no inversion) found



   Cartesian axes

     site n.     atom                  positions (alat units)
         1           Ba  tau(   1) = (  -0.0243650   0.0000000   0.0000000  )
         2           Ti  tau(   2) = (   0.4894495   0.5056957   0.5056957  )
         3           O   tau(   3) = (   0.0228482   0.5056957   0.5056957  )
         4           O   tau(   4) = (   0.5349219   0.0000000   0.5056957  )
         5           O   tau(   5) = (   0.5349219   0.5056957   0.0000000  )

     number of k points=   216

     Number of k-points >= 100: set verbosity='high' to print them.

     Dense  grid:   165629 G-vectors     FFT dimensions: (  72,  72,  72)

     Smooth grid:    58557 G-vectors     FFT dimensions: (  50,  48,  48)

     Estimated max dynamical RAM per process >       5.69MB

     Estimated total allocated dynamical RAM >     159.22MB

     The potential is recalculated from file :
     ./_ph0/bto.save/charge-density.dat

     Starting wfc are   35 atomic wfcs

     Band Structure Calculation
     Davidson diagonalization with overlap

     ethr =  2.50E-11,  avg # of iterations = 20.6

     total cpu time spent up to now is       93.3 secs

     End of band structure calculation

     Number of k-points >= 100: set verbosity='high' to print the bands.

     highest occupied, lowest unoccupied level (ev):    10.1889   12.4948

     Writing output data file bto.save

                                                                                

     bravais-lattice index     =            0
     lattice parameter (alat)  =       7.4000  a.u.
     unit-cell volume          =     433.3637 (a.u.)^3
     number of atoms/cell      =            5
     number of atomic types    =            3
     kinetic-energy cut-off    =     100.0000  Ry
     charge density cut-off    =     800.0000  Ry
     convergence threshold     =      1.0E-12
     beta                      =       0.7000
     number of iterations used =            4
     Exchange-correlation      =  SLA  PW   PBE  PBE ( 1  4  3  4 0 0)


     celldm(1)=    7.40000  celldm(2)=    0.00000  celldm(3)=    0.00000
     celldm(4)=    0.00000  celldm(5)=    0.00000  celldm(6)=    0.00000

     crystal axes: (cart. coord. in units of alat)
               a(1) = (  1.0455  0.0000  0.0000 )  
               a(2) = (  0.0000  1.0114  0.0000 )  
               a(3) = (  0.0000  0.0000  1.0114 )  

     reciprocal axes: (cart. coord. in units 2 pi/alat)
               b(1) = (  0.9565  0.0000  0.0000 )  
               b(2) = (  0.0000  0.9887  0.0000 )  
               b(3) = (  0.0000  0.0000  0.9887 )  


     Atoms inside the unit cell: 

     Cartesian axes

     site n.  atom      mass           positions (alat units)
        1     Ba 137.3300   tau(    1) = (   -0.02436    0.00000    0.00000  )
        2     Ti  47.8800   tau(    2) = (    0.48945    0.50570    0.50570  )
        3     O   15.9900   tau(    3) = (    0.02285    0.50570    0.50570  )
        4     O   15.9900   tau(    4) = (    0.53492    0.00000    0.50570  )
        5     O   15.9900   tau(    5) = (    0.53492    0.50570    0.00000  )

     Computing dynamical matrix for 
                    q = (   0.0000000   0.2471842  -0.4943685 )
 
      2 Sym.Ops. (no q -> -q+G )


     G cutoff = 1109.6696  (   5915 G-vectors)     FFT grid: ( 72, 72, 72)
     G cutoff =  554.8348  (   2092 G-vectors)  smooth grid: ( 50, 48, 48)
     number of k points=   216

     PseudoPot. # 1 for O  read from file:
     ../../PSP_DIR/O.pbe-rrkjus.UPF
     MD5 check sum: 390ba29e75625707450f3bd3f0eb6be9
     Pseudo is Ultrasoft, Zval =  6.0
     Generated by new atomic code, or converted to UPF format
     Using radial grid of 1269 points,  4 beta functions with: 
                l(1) =   0
                l(2) =   0
                l(3) =   1
                l(4) =   1
     Q(r) pseudized with 0 coefficients 


     PseudoPot. # 2 for Ti read from file:
     ../../PSP_DIR/Ti.pbe-sp-van_ak.UPF
     MD5 check sum: 8e4df49b7f0d34bbd5052bf3f5ea0213
     Pseudo is Ultrasoft, Zval = 12.0
     Generated by new atomic code, or converted to UPF format
     Using radial grid of  851 points,  6 beta functions with: 
                l(1) =   0
                l(2) =   0
                l(3) =   1
                l(4) =   1
                l(5) =   2
                l(6) =   2
     Q(r) pseudized with  8 coefficients,  rinner =    1.000   1.000   1.000
                                                       1.000   1.000

     PseudoPot. # 3 for Ba read from file:
     ../../PSP_DIR/Ba.pbe-nsp-van.UPF
     MD5 check sum: a011de417d3466d8e94df216395bc359
     Pseudo is Ultrasoft + core correction, Zval = 10.0
     Generated by new atomic code, or converted to UPF format
     Using radial grid of  907 points,  6 beta functions with: 
                l(1) =   0
                l(2) =   0
                l(3) =   1
                l(4) =   1
                l(5) =   2
                l(6) =   2
     Q(r) pseudized with  6 coefficients,  rinner =    1.200   1.200   1.200
                                                       1.200   1.200

     Mode symmetry, C_s (m)     point group:


     Atomic displacements:
     There are  15 irreducible representations

     Representation     1      1 modes -A'  To be done

     Representation     2      1 modes -A'  To be done

     Representation     3      1 modes -A'  To be done

     Representation     4      1 modes -A'  To be done

     Representation     5      1 modes -A'  To be done

     Representation     6      1 modes -A'  To be done

     Representation     7      1 modes -A'  To be done

     Representation     8      1 modes -A''  To be done

     Representation     9      1 modes -A''  To be done

     Representation    10      1 modes -A''  To be done

     Representation    11      1 modes -A''  To be done

     Representation    12      1 modes -A''  To be done

     Representation    13      1 modes -A''  To be done

     Representation    14      1 modes -A''  To be done

     Representation    15      1 modes -A''  To be done



     Alpha used in Ewald sum =   2.8000
     PHONON       : 52m 4.58s CPU    53m53.20s WALL



     Representation #  1 mode #   1

     Self-consistent Calculation

      iter #   1 total cpu time :  3240.1 secs   av.it.:   8.6
      thresh= 1.000E-02 alpha_mix =  0.700 |ddv_scf|^2 =  1.265E-06

      iter #   2 total cpu time :  3250.5 secs   av.it.:  18.2
      thresh= 1.125E-04 alpha_mix =  0.700 |ddv_scf|^2 =  3.637E-06

      iter #   3 total cpu time :  3260.3 secs   av.it.:  16.4
      thresh= 1.907E-04 alpha_mix =  0.700 |ddv_scf|^2 =  1.512E-07

      iter #   4 total cpu time :  3270.1 secs   av.it.:  17.0
      thresh= 3.889E-05 alpha_mix =  0.700 |ddv_scf|^2 =  9.980E-09

      iter #   5 total cpu time :  3280.3 secs   av.it.:  17.1
      thresh= 9.990E-06 alpha_mix =  0.700 |ddv_scf|^2 =  4.692E-10

      iter #   6 total cpu time :  3290.3 secs   av.it.:  17.2
      thresh= 2.166E-06 alpha_mix =  0.700 |ddv_scf|^2 =  3.941E-12

      iter #   7 total cpu time :  3300.3 secs   av.it.:  17.3
      thresh= 1.985E-07 alpha_mix =  0.700 |ddv_scf|^2 =  1.625E-13

     End of self-consistent calculation

     Convergence has been achieved 


     Representation #  2 mode #   2

     Self-consistent Calculation

      iter #   1 total cpu time :  3307.8 secs   av.it.:   9.2
      thresh= 1.000E-02 alpha_mix =  0.700 |ddv_scf|^2 =  5.174E-06

      iter #   2 total cpu time :  3318.0 secs   av.it.:  18.0
      thresh= 2.275E-04 alpha_mix =  0.700 |ddv_scf|^2 =  1.325E-05

      iter #   3 total cpu time :  3327.7 secs   av.it.:  16.4
      thresh= 3.640E-04 alpha_mix =  0.700 |ddv_scf|^2 =  5.955E-07

      iter #   4 total cpu time :  3337.3 secs   av.it.:  16.7
      thresh= 7.717E-05 alpha_mix =  0.700 |ddv_scf|^2 =  3.059E-08

      iter #   5 total cpu time :  3347.4 secs   av.it.:  16.4
      thresh= 1.749E-05 alpha_mix =  0.700 |ddv_scf|^2 =  9.122E-11

      iter #   6 total cpu time :  3357.3 secs   av.it.:  17.1
      thresh= 9.551E-07 alpha_mix =  0.700 |ddv_scf|^2 =  2.686E-12

      iter #   7 total cpu time :  3367.1 secs   av.it.:  17.1
      thresh= 1.639E-07 alpha_mix =  0.700 |ddv_scf|^2 =  1.224E-13

     End of self-consistent calculation

     Convergence has been achieved 


     Representation #  3 mode #   3

     Self-consistent Calculation

      iter #   1 total cpu time :  3375.0 secs   av.it.:   9.2
      thresh= 1.000E-02 alpha_mix =  0.700 |ddv_scf|^2 =  4.661E-06

      iter #   2 total cpu time :  3385.4 secs   av.it.:  17.9
      thresh= 2.159E-04 alpha_mix =  0.700 |ddv_scf|^2 =  1.009E-05

      iter #   3 total cpu time :  3395.5 secs   av.it.:  16.5
      thresh= 3.177E-04 alpha_mix =  0.700 |ddv_scf|^2 =  6.634E-07

      iter #   4 total cpu time :  3405.1 secs   av.it.:  16.6
      thresh= 8.145E-05 alpha_mix =  0.700 |ddv_scf|^2 =  2.626E-08

     Maximum CPU time exceeded

     max_seconds     =    3400.00
     elapsed seconds =    3403.91
 
     PHONON       : 54m51.03s CPU    56m45.13s WALL

     INITIALIZATION: 
     phq_setup    :      0.14s CPU      0.15s WALL (       5 calls)
     phq_init     :     25.99s CPU     27.03s WALL (       5 calls)
 
     phq_init     :     25.99s CPU     27.03s WALL (       5 calls)
     set_drhoc    :      0.58s CPU      0.58s WALL (      15 calls)
     init_vloc    :      0.21s CPU      0.21s WALL (       5 calls)
     init_us_1    :      0.31s CPU      0.36s WALL (       5 calls)
     newd         :      0.19s CPU      0.21s WALL (       5 calls)
     dvanqq       :      2.83s CPU      2.84s WALL (       5 calls)
     drho         :     19.68s CPU     20.59s WALL (       5 calls)
 
     DYNAMICAL MATRIX:
     dynmat0      :      1.89s CPU      1.93s WALL (       5 calls)
     phqscf       :   3119.14s CPU   3224.18s WALL (       5 calls)
     dynmatrix    :      0.01s CPU      0.02s WALL (       4 calls)
 
     phqscf       :   3119.14s CPU   3224.18s WALL (       6 calls)
     solve_linter :   3111.27s CPU   3215.65s WALL (      58 calls)
     drhodv       :      4.87s CPU      5.17s WALL (      57 calls)
 
     dynmat0      :      1.89s CPU      1.93s WALL (       5 calls)
     dynmat_us    :      1.38s CPU      1.41s WALL (       5 calls)
     d2ionq       :      0.03s CPU      0.04s WALL (       5 calls)
     dynmatcc     :      0.45s CPU      0.46s WALL (       5 calls)
 
     dynmat_us    :      1.38s CPU      1.41s WALL (       5 calls)
     addusdynmat  :      0.00s CPU      0.00s WALL (       5 calls)
 
     phqscf       :   3119.14s CPU   3224.18s WALL (       7 calls)
     solve_linter :   3111.27s CPU   3215.65s WALL (      59 calls)
 
     solve_linter :   3111.27s CPU   3215.65s WALL (      60 calls)
     dvqpsi_us    :     33.00s CPU     34.04s WALL (    4779 calls)
     ortho        :     20.35s CPU     20.78s WALL (   35487 calls)
     cgsolve      :   2687.37s CPU   2757.06s WALL (   35487 calls)
     incdrhoscf   :    189.13s CPU    195.48s WALL (   35487 calls)
     addusddens   :     26.46s CPU     26.53s WALL (     502 calls)
     vpsifft      :     97.97s CPU    105.04s WALL (   30546 calls)
     dv_of_drho   :      3.58s CPU      3.63s WALL (     481 calls)
     mix_pot      :      7.32s CPU     17.65s WALL (     439 calls)
     psymdvscf    :     36.70s CPU     38.33s WALL (     432 calls)
     newdq        :     24.25s CPU     24.29s WALL (     439 calls)
     adddvscf     :      8.90s CPU      8.91s WALL (   30870 calls)
     drhodvus     :      0.11s CPU      0.18s WALL (      57 calls)
 
     dvqpsi_us    :     33.00s CPU     34.04s WALL (    4779 calls)
     dvqpsi_us_on :     10.96s CPU     11.03s WALL (    4779 calls)
 
     cgsolve      :   2687.37s CPU   2757.06s WALL (   35487 calls)
     ch_psi       :   2598.87s CPU   2671.04s WALL (  880075 calls)
 
     ch_psi       :   2598.87s CPU   2671.04s WALL (  880075 calls)
     h_psi        :   2275.29s CPU   2335.22s WALL (  896839 calls)
     last         :    294.43s CPU    303.64s WALL (  880075 calls)
 
     h_psi        :   2275.29s CPU   2335.22s WALL (  896839 calls)
     add_vuspsi   :     65.97s CPU     66.38s WALL (  896839 calls)
 
     incdrhoscf   :    189.13s CPU    195.48s WALL (   35487 calls)
     addusdbec    :      9.59s CPU      9.76s WALL (   41292 calls)
 
     drhodvus     :      0.11s CPU      0.18s WALL (      57 calls)
 
      General routines
     calbec       :    272.29s CPU    274.16s WALL ( 1889711 calls)
     fft          :      6.45s CPU      6.66s WALL (    9843 calls)
     ffts         :      2.78s CPU      2.88s WALL (    6752 calls)
     fftw         :   2230.02s CPU   2201.15s WALL (27379994 calls)
     davcio       :     10.78s CPU     25.55s WALL (  188339 calls)
     write_rec    :      0.62s CPU      6.18s WALL (     496 calls)
 
 
     PHONON       : 54m51.03s CPU    56m45.13s WALL

 
   This run was terminated on:  10:52:48   7Jan2018            

=------------------------------------------------------------------------------=
   JOB DONE.
=------------------------------------------------------------------------------=
