
     Program PWSCF v.6.1 (svn rev. 13369) starts on 10Jan2018 at 11:40:54 

     This program is part of the open-source Quantum ESPRESSO suite
     for quantum simulation of materials; please cite
         "P. Giannozzi et al., J. Phys.:Condens. Matter 21 395502 (2009);
          URL http://www.quantum-espresso.org", 
     in publications or presentations arising from this work. More details at
     http://www.quantum-espresso.org/quote

     Parallel version (MPI), running on    28 processors
     R & G space division:  proc/nbgrp/npool/nimage =      28
     Waiting for input...
     Reading input from standard input

     Current dimensions of program PWSCF are:
     Max number of different atomic species (ntypx) = 10
     Max number of k-points (npk) =  40000
     Max angular momentum in pseudopotentials (lmaxx) =  3
               file O.pbe-rrkjus.UPF: wavefunction(s)  2S renormalized

     Subspace diagonalization in iterative solution of the eigenvalue problem:
     a serial algorithm will be used

 
     Parallelization info
     --------------------
     sticks:   dense  smooth     PW     G-vecs:    dense   smooth      PW
     Min          63      31      9                 2089      739     115
     Max          64      32     10                 2094      746     118
     Sum        1781     885    261                58557    20775    3279
 

     Title: 
     cubic BaTiO3 scf xc=PBE                                                    


     bravais-lattice index     =            6
     lattice parameter (alat)  =       7.4843  a.u.
     unit-cell volume          =     433.3637 (a.u.)^3
     number of atoms/cell      =            5
     number of atomic types    =            3
     number of electrons       =        40.00
     number of Kohn-Sham states=           24
     kinetic-energy cutoff     =      50.0000  Ry
     charge density cutoff     =     400.0000  Ry
     convergence threshold     =      1.0E-12
     mixing beta               =       0.6000
     number of iterations used =            8  plain     mixing
     Exchange-correlation      =  SLA  PW   PBE  PBE ( 1  4  3  4 0 0)

     celldm(1)=   7.484296  celldm(2)=   0.000000  celldm(3)=   1.033712
     celldm(4)=   0.000000  celldm(5)=   0.000000  celldm(6)=   0.000000

     crystal axes: (cart. coord. in units of alat)
               a(1) = (   1.000000   0.000000   0.000000 )  
               a(2) = (   0.000000   1.000000   0.000000 )  
               a(3) = (   0.000000   0.000000   1.033712 )  

     reciprocal axes: (cart. coord. in units 2 pi/alat)
               b(1) = (  1.000000  0.000000  0.000000 )  
               b(2) = (  0.000000  1.000000  0.000000 )  
               b(3) = (  0.000000  0.000000  0.967387 )  


     PseudoPot. # 1 for O  read from file:
     ../../PSP_DIR/O.pbe-rrkjus.UPF
     MD5 check sum: 390ba29e75625707450f3bd3f0eb6be9
     Pseudo is Ultrasoft, Zval =  6.0
     Generated by new atomic code, or converted to UPF format
     Using radial grid of 1269 points,  4 beta functions with: 
                l(1) =   0
                l(2) =   0
                l(3) =   1
                l(4) =   1
     Q(r) pseudized with 0 coefficients 


     PseudoPot. # 2 for Ti read from file:
     ../../PSP_DIR/Ti.pbe-sp-van_ak.UPF
     MD5 check sum: 8e4df49b7f0d34bbd5052bf3f5ea0213
     Pseudo is Ultrasoft, Zval = 12.0
     Generated by new atomic code, or converted to UPF format
     Using radial grid of  851 points,  6 beta functions with: 
                l(1) =   0
                l(2) =   0
                l(3) =   1
                l(4) =   1
                l(5) =   2
                l(6) =   2
     Q(r) pseudized with  8 coefficients,  rinner =    1.000   1.000   1.000
                                                       1.000   1.000

     PseudoPot. # 3 for Ba read from file:
     ../../PSP_DIR/Ba.pbe-nsp-van.UPF
     MD5 check sum: a011de417d3466d8e94df216395bc359
     Pseudo is Ultrasoft + core correction, Zval = 10.0
     Generated by new atomic code, or converted to UPF format
     Using radial grid of  907 points,  6 beta functions with: 
                l(1) =   0
                l(2) =   0
                l(3) =   1
                l(4) =   1
                l(5) =   2
                l(6) =   2
     Q(r) pseudized with  6 coefficients,  rinner =    1.200   1.200   1.200
                                                       1.200   1.200

     atomic species   valence    mass     pseudopotential
        O              6.00    15.99000     O ( 1.00)
        Ti            12.00    47.88000     Ti( 1.00)
        Ba            10.00   137.33000     Ba( 1.00)

      8 Sym. Ops. (no inversion) found



   Cartesian axes

     site n.     atom                  positions (alat units)
         1           Ba  tau(   1) = (   0.0000000   0.0000000   0.0240905  )
         2           Ti  tau(   2) = (   0.5000000   0.5000000   0.4839368  )
         3           O   tau(   3) = (   0.5000000   0.5000000   0.0225908  )
         4           O   tau(   4) = (   0.0000000   0.5000000   0.5288971  )
         5           O   tau(   5) = (   0.5000000   0.0000000   0.5288971  )

     number of k points=    18
                       cart. coord. in units 2pi/alat
        k(    1) = (   0.0833333   0.0833333   0.0806156), wk =   0.0740741
        k(    2) = (   0.0833333   0.0833333   0.2418468), wk =   0.0740741
        k(    3) = (   0.0833333   0.0833333   0.4030780), wk =   0.0740741
        k(    4) = (   0.0833333   0.2500000   0.0806156), wk =   0.1481481
        k(    5) = (   0.0833333   0.2500000   0.2418468), wk =   0.1481481
        k(    6) = (   0.0833333   0.2500000   0.4030780), wk =   0.1481481
        k(    7) = (   0.0833333   0.4166667   0.0806156), wk =   0.1481481
        k(    8) = (   0.0833333   0.4166667   0.2418468), wk =   0.1481481
        k(    9) = (   0.0833333   0.4166667   0.4030780), wk =   0.1481481
        k(   10) = (   0.2500000   0.2500000   0.0806156), wk =   0.0740741
        k(   11) = (   0.2500000   0.2500000   0.2418468), wk =   0.0740741
        k(   12) = (   0.2500000   0.2500000   0.4030780), wk =   0.0740741
        k(   13) = (   0.2500000   0.4166667   0.0806156), wk =   0.1481481
        k(   14) = (   0.2500000   0.4166667   0.2418468), wk =   0.1481481
        k(   15) = (   0.2500000   0.4166667   0.4030780), wk =   0.1481481
        k(   16) = (   0.4166667   0.4166667   0.0806156), wk =   0.0740741
        k(   17) = (   0.4166667   0.4166667   0.2418468), wk =   0.0740741
        k(   18) = (   0.4166667   0.4166667   0.4030780), wk =   0.0740741

     Dense  grid:    58557 G-vectors     FFT dimensions: (  48,  48,  50)

     Smooth grid:    20775 G-vectors     FFT dimensions: (  36,  36,  36)

     Estimated max dynamical RAM per process >       2.50MB

     Estimated total allocated dynamical RAM >      70.13MB

     Initial potential from superposition of free atoms

     starting charge   38.98495, renormalised to   40.00000
     Starting wfc are   35 randomized atomic wfcs

     total cpu time spent up to now is        0.8 secs

     per-process dynamical memory:    35.3 Mb

     Self-consistent Calculation

     iteration #  1     ecut=    50.00 Ry     beta=0.60
     Davidson diagonalization with overlap
     ethr =  1.00E-02,  avg # of iterations =  2.4

     total cpu time spent up to now is        1.0 secs

     total energy              =    -302.92126323 Ry
     Harris-Foulkes estimate   =    -303.47149352 Ry
     estimated scf accuracy    <       0.77146282 Ry

     iteration #  2     ecut=    50.00 Ry     beta=0.60
     Davidson diagonalization with overlap
     ethr =  1.93E-03,  avg # of iterations =  4.0

     total cpu time spent up to now is        1.4 secs

     total energy              =    -302.35629155 Ry
     Harris-Foulkes estimate   =    -303.85184004 Ry
     estimated scf accuracy    <       5.83594760 Ry

     iteration #  3     ecut=    50.00 Ry     beta=0.60
     Davidson diagonalization with overlap
     ethr =  1.93E-03,  avg # of iterations =  3.2

     total cpu time spent up to now is        1.7 secs

     total energy              =    -303.31087907 Ry
     Harris-Foulkes estimate   =    -303.35670994 Ry
     estimated scf accuracy    <       0.17005367 Ry

     iteration #  4     ecut=    50.00 Ry     beta=0.60
     Davidson diagonalization with overlap
     ethr =  4.25E-04,  avg # of iterations =  1.3

     total cpu time spent up to now is        1.9 secs

     total energy              =    -303.30203160 Ry
     Harris-Foulkes estimate   =    -303.31996047 Ry
     estimated scf accuracy    <       0.05977136 Ry

     iteration #  5     ecut=    50.00 Ry     beta=0.60
     Davidson diagonalization with overlap
     ethr =  1.49E-04,  avg # of iterations =  3.2

     total cpu time spent up to now is        2.2 secs

     total energy              =    -303.31209721 Ry
     Harris-Foulkes estimate   =    -303.31290192 Ry
     estimated scf accuracy    <       0.00229723 Ry

     iteration #  6     ecut=    50.00 Ry     beta=0.60
     Davidson diagonalization with overlap
     ethr =  5.74E-06,  avg # of iterations =  3.6

     total cpu time spent up to now is        2.5 secs

     total energy              =    -303.31271208 Ry
     Harris-Foulkes estimate   =    -303.31284505 Ry
     estimated scf accuracy    <       0.00059194 Ry

     iteration #  7     ecut=    50.00 Ry     beta=0.60
     Davidson diagonalization with overlap
     ethr =  1.48E-06,  avg # of iterations =  2.0

     total cpu time spent up to now is        2.8 secs

     total energy              =    -303.31269984 Ry
     Harris-Foulkes estimate   =    -303.31275929 Ry
     estimated scf accuracy    <       0.00015554 Ry

     iteration #  8     ecut=    50.00 Ry     beta=0.60
     Davidson diagonalization with overlap
     ethr =  3.89E-07,  avg # of iterations =  2.8

     total cpu time spent up to now is        3.0 secs

     total energy              =    -303.31273238 Ry
     Harris-Foulkes estimate   =    -303.31273305 Ry
     estimated scf accuracy    <       0.00000376 Ry

     iteration #  9     ecut=    50.00 Ry     beta=0.60
     Davidson diagonalization with overlap
     ethr =  9.40E-09,  avg # of iterations =  3.1

     total cpu time spent up to now is        3.3 secs

     total energy              =    -303.31273333 Ry
     Harris-Foulkes estimate   =    -303.31273368 Ry
     estimated scf accuracy    <       0.00000082 Ry

     iteration # 10     ecut=    50.00 Ry     beta=0.60
     Davidson diagonalization with overlap
     ethr =  2.06E-09,  avg # of iterations =  2.9

     total cpu time spent up to now is        3.5 secs

     total energy              =    -303.31273347 Ry
     Harris-Foulkes estimate   =    -303.31273347 Ry
     estimated scf accuracy    <          9.6E-09 Ry

     iteration # 11     ecut=    50.00 Ry     beta=0.60
     Davidson diagonalization with overlap
     ethr =  2.40E-11,  avg # of iterations =  3.8

     total cpu time spent up to now is        3.9 secs

     total energy              =    -303.31273348 Ry
     Harris-Foulkes estimate   =    -303.31273348 Ry
     estimated scf accuracy    <          9.8E-10 Ry

     iteration # 12     ecut=    50.00 Ry     beta=0.60
     Davidson diagonalization with overlap
     ethr =  2.45E-12,  avg # of iterations =  2.7

     total cpu time spent up to now is        4.2 secs

     total energy              =    -303.31273348 Ry
     Harris-Foulkes estimate   =    -303.31273348 Ry
     estimated scf accuracy    <          9.5E-11 Ry

     iteration # 13     ecut=    50.00 Ry     beta=0.60
     Davidson diagonalization with overlap
     ethr =  2.37E-13,  avg # of iterations =  2.6

     total cpu time spent up to now is        4.4 secs

     total energy              =    -303.31273348 Ry
     Harris-Foulkes estimate   =    -303.31273348 Ry
     estimated scf accuracy    <          5.1E-12 Ry

     iteration # 14     ecut=    50.00 Ry     beta=0.60
     Davidson diagonalization with overlap
     ethr =  1.00E-13,  avg # of iterations =  1.2

     total cpu time spent up to now is        4.6 secs

     End of self-consistent calculation

          k = 0.0833 0.0833 0.0806 (  2593 PWs)   bands (ev):

   -46.1255 -22.4521 -22.3616 -22.3614 -14.3617  -6.5624  -5.9602  -5.8304
     0.4186   0.4374   0.5551   7.6706   7.8338   7.8548   8.4568   8.5475
     8.9754   9.3767   9.7448   9.8318  12.4714  12.8012  12.8165  14.8879

          k = 0.0833 0.0833 0.2418 (  2588 PWs)   bands (ev):

   -46.1251 -22.4695 -22.3609 -22.3607 -14.3202  -6.5820  -5.9377  -5.8192
     0.4703   0.4945   0.7112   7.0136   7.5875   7.6799   8.1894   8.2906
     8.9033   9.0066   9.5642   9.6752  12.5044  13.3041  13.3375  14.8812

          k = 0.0833 0.0833 0.4031 (  2596 PWs)   bands (ev):

   -46.1248 -22.4868 -22.3601 -22.3600 -14.2778  -6.6711  -5.8319  -5.8080
     0.5035   0.6127   0.8201   6.3841   7.3618   7.4954   7.8689   8.1505
     8.7554   8.8785   9.3725   9.5367  12.5374  13.8033  13.8480  14.8788

          k = 0.0833 0.2500 0.0806 (  2590 PWs)   bands (ev):

   -46.1249 -22.4509 -22.3871 -22.3604 -14.3082  -6.6100  -5.9218  -5.7627
     0.4636   0.4800   0.7111   7.0166   7.5932   7.7263   8.0910   8.2484
     8.7837   8.9537   9.4644   9.5754  12.8415  13.1902  13.2602  14.9312

          k = 0.0833 0.2500 0.2418 (  2596 PWs)   bands (ev):

   -46.1246 -22.4681 -22.3861 -22.3598 -14.2738  -6.5026  -5.9551  -5.7682
     0.4010   0.4948   0.7983   6.7555   7.0899   7.5207   7.7861   8.0623
     8.6491   9.1065   9.3320   9.6179  13.2044  13.3786  13.5388  15.3543

          k = 0.0833 0.2500 0.4031 (  2600 PWs)   bands (ev):

   -46.1243 -22.4852 -22.3852 -22.3591 -14.2387  -6.4569  -5.9262  -5.7646
     0.3843   0.5830   0.7555   6.3306   6.7462   7.2945   7.5483   7.9515
     8.7492   9.0147   9.3077   9.5972  13.2549  13.8497  13.9266  15.4300

          k = 0.0833 0.4167 0.0806 (  2591 PWs)   bands (ev):

   -46.1244 -22.4498 -22.4124 -22.3594 -14.2533  -6.7254  -5.8942  -5.5982
     0.5279   0.6117   0.7535   6.3638   7.4360   7.5408   7.6673   7.9853
     8.6690   8.8867   9.0624   9.3150  12.8879  13.8448  13.9199  14.8909

          k = 0.0833 0.4167 0.2418 (  2584 PWs)   bands (ev):

   -46.1241 -22.4667 -22.4113 -22.3588 -14.2263  -6.5203  -5.9055  -5.6738
     0.4361   0.5205   0.7477   6.2904   6.8536   7.1601   7.5209   7.9493
     8.5431   9.0279   9.1686   9.6065  13.3968  13.8785  14.0326  15.4309

          k = 0.0833 0.4167 0.4031 (  2592 PWs)   bands (ev):

   -46.1238 -22.4836 -22.4101 -22.3581 -14.1988  -6.2538  -5.9807  -5.7405
     0.3479   0.4554   0.7272   6.1503   6.4229   6.6931   7.4769   7.7728
     8.4372   9.2390   9.3835   9.9087  13.8821  13.9158  14.2339  15.5831

          k = 0.2500 0.2500 0.0806 (  2593 PWs)   bands (ev):

   -46.1244 -22.4499 -22.3862 -22.3853 -14.2630  -6.5345  -5.8388  -5.7915
     0.3395   0.4870   0.7814   6.7546   7.2084   7.4600   7.8083   8.1212
     8.1793   9.0857   9.3206   9.7992  13.1823  13.3879  13.5307  15.2542

          k = 0.2500 0.2500 0.2418 (  2586 PWs)   bands (ev):

   -46.1241 -22.4669 -22.3853 -22.3845 -14.2331  -6.3770  -5.8956  -5.7548
     0.2201   0.3052   0.8331   6.5691   7.1158   7.1692   7.7088   7.9049
     8.0024   9.3556   9.4085   9.6752  13.5669  13.6279  13.6557  16.2730

          k = 0.2500 0.2500 0.4031 (  2581 PWs)   bands (ev):

   -46.1238 -22.4838 -22.3843 -22.3837 -14.2027  -6.2380  -5.9283  -5.7170
     0.1013   0.3404   0.6492   6.3170   6.8002   7.1421   7.3210   7.9636
     8.0964   9.4627   9.5111   9.5815  13.6813  13.9655  14.0362  16.4363

          k = 0.2500 0.4167 0.0806 (  2588 PWs)   bands (ev):

   -46.1239 -22.4488 -22.4108 -22.3844 -14.2167  -6.5291  -5.8198  -5.6734
     0.3530   0.4924   0.7070   6.2909   6.9381   7.1358   7.5684   7.8627
     8.3684   8.9615   9.1197   9.8458  13.3092  13.9441  14.0105  15.2279

          k = 0.2500 0.4167 0.2418 (  2583 PWs)   bands (ev):

   -46.1236 -22.4656 -22.4098 -22.3836 -14.1916  -6.3254  -5.8110  -5.6823
     0.1497   0.2342   0.6259   6.2568   6.9221   7.1489   7.3152   7.7874
     8.0230   9.2123   9.4862   9.7899  13.6997  14.0605  14.1211  16.2235

          k = 0.2500 0.4167 0.4031 (  2578 PWs)   bands (ev):

   -46.1233 -22.4823 -22.4088 -22.3829 -14.1661  -6.0560  -5.8729  -5.6802
     0.0076   0.1263   0.3531   6.1390   6.6218   7.0742   7.2542   7.8113
     7.9018   9.5016   9.7587   9.8816  14.0790  14.1546  14.3199  16.6672

          k = 0.4167 0.4167 0.0806 (  2577 PWs)   bands (ev):

   -46.1234 -22.4477 -22.4093 -22.4091 -14.1794  -6.3332  -5.7492  -5.7349
     0.2376   0.3031   0.7067   6.1060   6.5110   6.5810   7.6093   7.6934
     8.3288   9.0676   9.1840  10.2344  13.9320  14.0111  14.2935  15.1847

          k = 0.4167 0.4167 0.2418 (  2580 PWs)   bands (ev):

   -46.1231 -22.4644 -22.4084 -22.4082 -14.1563  -6.1402  -5.6999  -5.6865
    -0.0164   0.0108   0.3642   6.0879   6.5863   7.0536   7.3054   7.8400
     7.8663   9.3914   9.4730  10.2130  14.1688  14.1923  14.3726  16.2419

          k = 0.4167 0.4167 0.4031 (  2566 PWs)   bands (ev):

   -46.1228 -22.4810 -22.4075 -22.4074 -14.1330  -5.9196  -5.6826  -5.6207
    -0.2586  -0.1857  -0.0107   5.9762   6.5921   6.6537   7.6380   7.8437
     7.9151   9.8151   9.8646  10.1844  14.3988  14.4041  14.4637  16.8915

     highest occupied, lowest unoccupied level (ev):    10.2344   12.4714

!    total energy              =    -303.31273348 Ry
     Harris-Foulkes estimate   =    -303.31273348 Ry
     estimated scf accuracy    <          4.6E-14 Ry

     The total energy is the sum of the following terms:

     one-electron contribution =     -73.19887364 Ry
     hartree contribution      =      60.48350824 Ry
     xc contribution           =     -84.18158744 Ry
     ewald contribution        =    -206.41578064 Ry

     convergence has been achieved in  14 iterations

     Forces acting on atoms (cartesian axes, Ry/au):

     atom    1 type  3   force =     0.00000000    0.00000000   -0.02858314
     atom    2 type  2   force =     0.00000000    0.00000000    0.02735781
     atom    3 type  1   force =     0.00000000    0.00000000    0.00808371
     atom    4 type  1   force =     0.00000000    0.00000000   -0.00342919
     atom    5 type  1   force =     0.00000000    0.00000000   -0.00342919

     Total force =     0.040673     Total SCF correction =     0.000000


     Computing stress (Cartesian axis) and pressure

          total   stress  (Ry/bohr**3)                   (kbar)     P=   -0.35
   0.00001951   0.00000000   0.00000000          2.87      0.00      0.00
   0.00000000   0.00001951   0.00000000          0.00      2.87      0.00
   0.00000000   0.00000000  -0.00004608          0.00      0.00     -6.78


     Writing output data file bto.save
 
     init_run     :      0.21s CPU      0.32s WALL (       1 calls)
     electrons    :      3.72s CPU      3.86s WALL (       1 calls)
     forces       :      0.08s CPU      0.08s WALL (       1 calls)
     stress       :      0.15s CPU      0.16s WALL (       1 calls)

     Called by init_run:
     wfcinit      :      0.09s CPU      0.10s WALL (       1 calls)
     potinit      :      0.03s CPU      0.04s WALL (       1 calls)

     Called by electrons:
     c_bands      :      2.93s CPU      3.01s WALL (      14 calls)
     sum_band     :      0.55s CPU      0.58s WALL (      14 calls)
     v_of_rho     :      0.04s CPU      0.05s WALL (      15 calls)
     newd         :      0.19s CPU      0.21s WALL (      15 calls)
     mix_rho      :      0.01s CPU      0.02s WALL (      14 calls)

     Called by c_bands:
     init_us_2    :      0.02s CPU      0.03s WALL (     558 calls)
     cegterg      :      2.79s CPU      2.87s WALL (     252 calls)

     Called by sum_band:
     sum_band:bec :      0.00s CPU      0.00s WALL (     252 calls)
     addusdens    :      0.21s CPU      0.21s WALL (      14 calls)

     Called by *egterg:
     h_psi        :      1.52s CPU      1.61s WALL (     967 calls)
     s_psi        :      0.04s CPU      0.04s WALL (     967 calls)
     g_psi        :      0.00s CPU      0.01s WALL (     697 calls)
     cdiaghg      :      0.93s CPU      0.91s WALL (     949 calls)

     Called by h_psi:
     h_psi:pot    :      1.52s CPU      1.60s WALL (     967 calls)
     h_psi:calbec :      0.10s CPU      0.09s WALL (     967 calls)
     vloc_psi     :      1.38s CPU      1.46s WALL (     967 calls)
     add_vuspsi   :      0.03s CPU      0.04s WALL (     967 calls)

     General routines
     calbec       :      0.15s CPU      0.14s WALL (    1309 calls)
     fft          :      0.03s CPU      0.06s WALL (     261 calls)
     ffts         :      0.00s CPU      0.00s WALL (      29 calls)
     fftw         :      1.54s CPU      1.62s WALL (   37890 calls)
     interpolate  :      0.01s CPU      0.01s WALL (      29 calls)
     davcio       :      0.00s CPU      0.00s WALL (      18 calls)
 
     Parallel routines
     fft_scatter  :      0.91s CPU      0.95s WALL (   38180 calls)
 
     PWSCF        :     4.32s CPU         5.01s WALL

 
   This run was terminated on:  11:40:59  10Jan2018            

=------------------------------------------------------------------------------=
   JOB DONE.
=------------------------------------------------------------------------------=
