
     Program Q2R v.6.1 (svn rev. 13369) starts on 14Jan2018 at 17: 2:24 

     This program is part of the open-source Quantum ESPRESSO suite
     for quantum simulation of materials; please cite
         "P. Giannozzi et al., J. Phys.:Condens. Matter 21 395502 (2009);
          URL http://www.quantum-espresso.org", 
     in publications or presentations arising from this work. More details at
     http://www.quantum-espresso.org/quote

     Parallel version (MPI), running on    28 processors
     R & G space division:  proc/nbgrp/npool/nimage =      28

     reading grid info from file bto.dyn0    
  reading force constants from file bto.dyn1
 macroscopic fields = T
   6.22691   0.00000   0.00000
   0.00000   6.22691   0.00000
   0.00000   0.00000   5.26372
  na=            1
   2.50591   0.00000   0.00000
   0.00000   2.50591   0.00000
   0.00000   0.00000   2.57181
  na=            2
   6.93993   0.00000   0.00000
   0.00000   6.93993   0.00000
   0.00000   0.00000   5.22703
  na=            3
  -2.00861   0.00000   0.00000
   0.00000  -2.00861   0.00000
   0.00000   0.00000  -4.21676
  na=            4
  -5.54814   0.00000   0.00000
   0.00000  -2.13956   0.00000
   0.00000   0.00000  -1.91679
  na=            5
  -2.13956   0.00000   0.00000
   0.00000  -5.54814   0.00000
   0.00000   0.00000  -1.91679
  nqs=            1
 q=   0.00000000  0.00000000  0.00000000
  reading force constants from file bto.dyn2
  nqs=            2
 q=   0.00000000  0.00000000  0.24184680
 q=   0.00000000  0.00000000 -0.24184680
  reading force constants from file bto.dyn3
  nqs=            1
 q=   0.00000000  0.00000000 -0.48369361
  reading force constants from file bto.dyn4
  nqs=            4
 q=   0.00000000  0.25000000  0.00000000
 q=   0.25000000  0.00000000  0.00000000
 q=   0.00000000 -0.25000000  0.00000000
 q=  -0.25000000  0.00000000  0.00000000
  reading force constants from file bto.dyn5
  nqs=            8
 q=   0.00000000  0.25000000  0.24184680
 q=   0.00000000 -0.25000000 -0.24184680
 q=   0.25000000  0.00000000  0.24184680
 q=  -0.25000000  0.00000000 -0.24184680
 q=   0.00000000 -0.25000000  0.24184680
 q=   0.00000000  0.25000000 -0.24184680
 q=  -0.25000000  0.00000000  0.24184680
 q=   0.25000000  0.00000000 -0.24184680
  reading force constants from file bto.dyn6
  nqs=            4
 q=   0.00000000  0.25000000 -0.48369361
 q=   0.25000000  0.00000000 -0.48369361
 q=   0.00000000 -0.25000000 -0.48369361
 q=  -0.25000000  0.00000000 -0.48369361
  reading force constants from file bto.dyn7
  nqs=            2
 q=   0.00000000 -0.50000000  0.00000000
 q=  -0.50000000  0.00000000  0.00000000
  reading force constants from file bto.dyn8
  nqs=            4
 q=   0.00000000 -0.50000000  0.24184680
 q=   0.00000000  0.50000000 -0.24184680
 q=  -0.50000000  0.00000000  0.24184680
 q=   0.50000000  0.00000000 -0.24184680
  reading force constants from file bto.dyn9
  nqs=            2
 q=   0.00000000 -0.50000000 -0.48369361
 q=  -0.50000000  0.00000000 -0.48369361
  reading force constants from file bto.dyn10
  nqs=            4
 q=   0.25000000  0.25000000  0.00000000
 q=  -0.25000000 -0.25000000  0.00000000
 q=   0.25000000 -0.25000000  0.00000000
 q=  -0.25000000  0.25000000  0.00000000
  reading force constants from file bto.dyn11
  nqs=            8
 q=   0.25000000  0.25000000  0.24184680
 q=  -0.25000000 -0.25000000 -0.24184680
 q=  -0.25000000 -0.25000000  0.24184680
 q=   0.25000000  0.25000000 -0.24184680
 q=   0.25000000 -0.25000000  0.24184680
 q=  -0.25000000  0.25000000 -0.24184680
 q=  -0.25000000  0.25000000  0.24184680
 q=   0.25000000 -0.25000000 -0.24184680
  reading force constants from file bto.dyn12
  nqs=            4
 q=   0.25000000  0.25000000 -0.48369361
 q=  -0.25000000 -0.25000000 -0.48369361
 q=   0.25000000 -0.25000000 -0.48369361
 q=  -0.25000000  0.25000000 -0.48369361
  reading force constants from file bto.dyn13
  nqs=            4
 q=   0.25000000 -0.50000000  0.00000000
 q=  -0.25000000  0.50000000  0.00000000
 q=  -0.50000000  0.25000000  0.00000000
 q=  -0.50000000 -0.25000000  0.00000000
  reading force constants from file bto.dyn14
  nqs=            8
 q=   0.25000000 -0.50000000  0.24184680
 q=  -0.25000000  0.50000000 -0.24184680
 q=  -0.25000000  0.50000000  0.24184680
 q=   0.25000000 -0.50000000 -0.24184680
 q=  -0.50000000  0.25000000  0.24184680
 q=   0.50000000 -0.25000000 -0.24184680
 q=  -0.50000000 -0.25000000  0.24184680
 q=   0.50000000  0.25000000 -0.24184680
  reading force constants from file bto.dyn15
  nqs=            4
 q=   0.25000000 -0.50000000 -0.48369361
 q=  -0.25000000  0.50000000 -0.48369361
 q=  -0.50000000  0.25000000 -0.48369361
 q=  -0.50000000 -0.25000000 -0.48369361
  reading force constants from file bto.dyn16
  nqs=            1
 q=  -0.50000000 -0.50000000  0.00000000
  reading force constants from file bto.dyn17
  nqs=            2
 q=  -0.50000000 -0.50000000  0.24184680
 q=   0.50000000  0.50000000 -0.24184680
  reading force constants from file bto.dyn18
  nqs=            1
 q=  -0.50000000 -0.50000000 -0.48369361

      q-space grid ok, #points =   64

      fft-check warning: sum of imaginary terms = 5.762192E-07
 
     Q2R          :     0.38s CPU         0.57s WALL

 
   This run was terminated on:  17: 2:24  14Jan2018            

=------------------------------------------------------------------------------=
   JOB DONE.
=------------------------------------------------------------------------------=
