
     Program PWSCF v.6.1 (svn rev. 13369) starts on 31Dec2017 at 12:14:18 

     This program is part of the open-source Quantum ESPRESSO suite
     for quantum simulation of materials; please cite
         "P. Giannozzi et al., J. Phys.:Condens. Matter 21 395502 (2009);
          URL http://www.quantum-espresso.org", 
     in publications or presentations arising from this work. More details at
     http://www.quantum-espresso.org/quote

     Parallel version (MPI), running on    28 processors
     R & G space division:  proc/nbgrp/npool/nimage =      28
     Waiting for input...
     Reading input from standard input

     Current dimensions of program PWSCF are:
     Max number of different atomic species (ntypx) = 10
     Max number of k-points (npk) =  40000
     Max angular momentum in pseudopotentials (lmaxx) =  3

     Subspace diagonalization in iterative solution of the eigenvalue problem:
     a serial algorithm will be used

 
     Parallelization info
     --------------------
     sticks:   dense  smooth     PW     G-vecs:    dense   smooth      PW
     Min         125      62     17                 5539     1956     291
     Max         126      63     18                 5541     1961     296
     Sum        3505    1749    489               155139    54795    8217
 

     Title: 
     cubic BaTiO3 at 7.40 lattice parameter. xc=PZ                              


     bravais-lattice index     =            1
     lattice parameter (alat)  =       7.4000  a.u.
     unit-cell volume          =     405.2240 (a.u.)^3
     number of atoms/cell      =            5
     number of atomic types    =            3
     number of electrons       =        40.00
     number of Kohn-Sham states=           24
     kinetic-energy cutoff     =     100.0000  Ry
     charge density cutoff     =     800.0000  Ry
     convergence threshold     =      1.0E-12
     mixing beta               =       0.6000
     number of iterations used =            8  plain     mixing
     Exchange-correlation      = SLA-PZ-NOGX-NOGC ( 1  1  0  0 0 0)
     nstep                     =           50


     celldm(1)=   7.400000  celldm(2)=   0.000000  celldm(3)=   0.000000
     celldm(4)=   0.000000  celldm(5)=   0.000000  celldm(6)=   0.000000

     crystal axes: (cart. coord. in units of alat)
               a(1) = (   1.000000   0.000000   0.000000 )  
               a(2) = (   0.000000   1.000000   0.000000 )  
               a(3) = (   0.000000   0.000000   1.000000 )  

     reciprocal axes: (cart. coord. in units 2 pi/alat)
               b(1) = (  1.000000  0.000000  0.000000 )  
               b(2) = (  0.000000  1.000000  0.000000 )  
               b(3) = (  0.000000  0.000000  1.000000 )  


     PseudoPot. # 1 for O  read from file:
     ../../PSP_DIR/O.pz-van_ak.UPF
     MD5 check sum: d814fcb982dd9af4fc6452aae6bb9318
     Pseudo is Ultrasoft, Zval =  6.0
     Generated by new atomic code, or converted to UPF format
     Using radial grid of  737 points,  4 beta functions with: 
                l(1) =   0
                l(2) =   0
                l(3) =   1
                l(4) =   1
     Q(r) pseudized with  8 coefficients,  rinner =    0.800   0.800   0.800


     PseudoPot. # 2 for Ti read from file:
     ../../PSP_DIR/Ti.pz-sp-van_ak.UPF
     MD5 check sum: 545d0e6e05332b8871a8093f427cb0ca
     Pseudo is Ultrasoft, Zval = 12.0
     Generated by new atomic code, or converted to UPF format
     Using radial grid of  851 points,  6 beta functions with: 
                l(1) =   0
                l(2) =   0
                l(3) =   1
                l(4) =   1
                l(5) =   2
                l(6) =   2
     Q(r) pseudized with  8 coefficients,  rinner =    1.000   1.000   1.000
                                                       1.000   1.000

     PseudoPot. # 3 for Ba read from file:
     ../../PSP_DIR/Ba.pz-sp-hgh.UPF
     MD5 check sum: 155c4e4bbe33bd45901c985a874b3acf
     Pseudo is Norm-conserving, Zval = 10.0
     Generated in analytical, separable form
     Using radial grid of 1251 points,  6 beta functions with: 
                l(1) =   0
                l(2) =   0
                l(3) =   1
                l(4) =   1
                l(5) =   2
                l(6) =   3

     atomic species   valence    mass     pseudopotential
        O              6.00    15.99000     O ( 1.00)
        Ti            12.00    47.88000     Ti( 1.00)
        Ba            10.00   137.33000     Ba( 1.00)

     48 Sym. Ops., with inversion, found



   Cartesian axes

     site n.     atom                  positions (alat units)
         1           Ba  tau(   1) = (   0.0000000   0.0000000   0.0000000  )
         2           Ti  tau(   2) = (   0.5000000   0.5000000   0.5000000  )
         3           O   tau(   3) = (   0.0000000   0.5000000   0.5000000  )
         4           O   tau(   4) = (   0.5000000   0.0000000   0.5000000  )
         5           O   tau(   5) = (   0.5000000   0.5000000   0.0000000  )

     number of k points=    10
                       cart. coord. in units 2pi/alat
        k(    1) = (   0.0833333   0.0833333   0.0833333), wk =   0.0740741
        k(    2) = (   0.0833333   0.0833333   0.2500000), wk =   0.2222222
        k(    3) = (   0.0833333   0.0833333   0.4166667), wk =   0.2222222
        k(    4) = (   0.0833333   0.2500000   0.2500000), wk =   0.2222222
        k(    5) = (   0.0833333   0.2500000   0.4166667), wk =   0.4444444
        k(    6) = (   0.0833333   0.4166667   0.4166667), wk =   0.2222222
        k(    7) = (   0.2500000   0.2500000   0.2500000), wk =   0.0740741
        k(    8) = (   0.2500000   0.2500000   0.4166667), wk =   0.2222222
        k(    9) = (   0.2500000   0.4166667   0.4166667), wk =   0.2222222
        k(   10) = (   0.4166667   0.4166667   0.4166667), wk =   0.0740741

     Dense  grid:   155139 G-vectors     FFT dimensions: (  72,  72,  72)

     Smooth grid:    54795 G-vectors     FFT dimensions: (  48,  48,  48)

     Estimated max dynamical RAM per process >       5.66MB

     Estimated total allocated dynamical RAM >     158.53MB

     Initial potential from superposition of free atoms

     starting charge   28.99996, renormalised to   40.00000
     Starting wfc are   22 randomized atomic wfcs +    2 random wfc

     total cpu time spent up to now is        1.0 secs

     per-process dynamical memory:    57.8 Mb

     Self-consistent Calculation

     iteration #  1     ecut=   100.00 Ry     beta=0.60
     Davidson diagonalization with overlap
     ethr =  1.00E-02,  avg # of iterations = 12.0

     total cpu time spent up to now is        1.9 secs

     total energy              =      56.12846324 Ry
     Harris-Foulkes estimate   =    -388.55916160 Ry
     estimated scf accuracy    <     586.78987052 Ry

     iteration #  2     ecut=   100.00 Ry     beta=0.60
     Davidson diagonalization with overlap
     ethr =  1.00E-02,  avg # of iterations =  8.1

     total cpu time spent up to now is        2.4 secs

     total energy              =    -286.24942508 Ry
     Harris-Foulkes estimate   =    -456.82817386 Ry
     estimated scf accuracy    <     315.48824322 Ry

     iteration #  3     ecut=   100.00 Ry     beta=0.60
     Davidson diagonalization with overlap
     ethr =  1.00E-02,  avg # of iterations =  4.0

     total cpu time spent up to now is        2.8 secs

     total energy              =    -277.50866543 Ry
     Harris-Foulkes estimate   =    -302.76607089 Ry
     estimated scf accuracy    <      85.03636482 Ry

     iteration #  4     ecut=   100.00 Ry     beta=0.60
     Davidson diagonalization with overlap
     ethr =  1.00E-02,  avg # of iterations =  4.5

     total cpu time spent up to now is        3.1 secs

     total energy              =    -272.55413575 Ry
     Harris-Foulkes estimate   =    -279.26832988 Ry
     estimated scf accuracy    <      40.41875581 Ry

     iteration #  5     ecut=   100.00 Ry     beta=0.60
     Davidson diagonalization with overlap
     ethr =  1.00E-02,  avg # of iterations =  3.2

     total cpu time spent up to now is        3.3 secs

     total energy              =    -273.12736021 Ry
     Harris-Foulkes estimate   =    -273.02895432 Ry
     estimated scf accuracy    <      20.90925511 Ry

     iteration #  6     ecut=   100.00 Ry     beta=0.60
     Davidson diagonalization with overlap
     ethr =  1.00E-02,  avg # of iterations =  1.1

     total cpu time spent up to now is        3.5 secs

     total energy              =    -271.72889062 Ry
     Harris-Foulkes estimate   =    -273.15787523 Ry
     estimated scf accuracy    <      22.58245215 Ry

     iteration #  7     ecut=   100.00 Ry     beta=0.60
     Davidson diagonalization with overlap
     ethr =  1.00E-02,  avg # of iterations =  1.0

     total cpu time spent up to now is        3.7 secs

     total energy              =    -268.81956429 Ry
     Harris-Foulkes estimate   =    -271.75347923 Ry
     estimated scf accuracy    <      19.11466769 Ry

     iteration #  8     ecut=   100.00 Ry     beta=0.60
     Davidson diagonalization with overlap
     ethr =  1.00E-02,  avg # of iterations =  2.3

     negative rho (up, down):  1.066E-07 0.000E+00

     total cpu time spent up to now is        3.9 secs

     total energy              =    -262.93562016 Ry
     Harris-Foulkes estimate   =    -269.07741791 Ry
     estimated scf accuracy    <       9.91754349 Ry

     iteration #  9     ecut=   100.00 Ry     beta=0.60
     Davidson diagonalization with overlap
     ethr =  1.00E-02,  avg # of iterations =  3.0

     negative rho (up, down):  2.323E-07 0.000E+00

     total cpu time spent up to now is        4.2 secs

     total energy              =    -265.38736540 Ry
     Harris-Foulkes estimate   =    -265.04745243 Ry
     estimated scf accuracy    <       0.97201469 Ry

     iteration # 10     ecut=   100.00 Ry     beta=0.60
     Davidson diagonalization with overlap
     ethr =  2.43E-03,  avg # of iterations =  5.7

     negative rho (up, down):  4.097E-04 0.000E+00

     total cpu time spent up to now is        4.5 secs

          k = 0.0833 0.0833 0.0833     band energies (ev):

   -37.4824 -16.5019 -14.7016 -14.7014 -14.6893  -5.4658  -4.6726  -4.6693
    -1.3795  -1.3777  -1.2245   8.8386   9.2002   9.2050   9.4542   9.4689
     9.8905  10.9038  11.1295  11.1351  14.7349  15.8499  16.1303  16.1686

          k = 0.0833 0.0833 0.2500     band energies (ev):

   -37.4808 -16.4753 -14.7711 -14.6977 -14.6923  -5.6410  -4.6356  -4.5055
    -1.3572  -1.2934  -0.9243   8.3230   8.7529   8.9942   9.0456   9.1994
     9.7714  10.0902  10.8941  10.9436  15.6182  15.6625  16.5190  17.3647

          k = 0.0833 0.0833 0.4167     band energies (ev):

   -37.4793 -16.4505 -14.8354 -14.6942 -14.6937  -5.9072  -4.5979  -4.1831
    -1.3408  -1.1900  -0.6893   8.0616   8.4529   8.5580   8.6109   8.6380
     9.6486   9.7763  10.6750  10.7702  16.7195  17.5030  18.6700  19.1485

          k = 0.0833 0.2500 0.2500     band energies (ev):

   -37.4793 -16.4355 -14.7984 -14.7640 -14.6930  -5.5158  -4.6420  -4.4949
    -1.3347  -1.2716  -0.8435   7.8298   8.4103   8.8452   8.8686   9.1195
     9.6942  10.0049  10.6514  10.6915  15.8688  16.4628  17.6382  17.6870

          k = 0.0833 0.2500 0.4167     band energies (ev):

   -37.4778 -16.3961 -14.8614 -14.7922 -14.6909  -5.5675  -4.5391  -4.3781
    -1.3641  -1.1098  -0.8735   7.5689   8.0103   8.4869   8.7006   8.8534
     9.6052  10.0081  10.4741  10.5554  16.7690  17.7574  18.2509  18.6918

          k = 0.0833 0.4167 0.4167     band energies (ev):

   -37.4764 -16.3385 -14.8924 -14.8828 -14.6884  -5.1710  -4.6192  -4.4881
    -1.2583  -1.1565  -1.0225   7.0979   7.7745   8.4106   8.4232   8.6431
     9.8708  10.1025  10.2212  10.8774  17.1403  17.6640  18.5061  18.7307

          k = 0.2500 0.2500 0.2500     band energies (ev):

   -37.4778 -16.3929 -14.7935 -14.7933 -14.7682  -5.2902  -4.5281  -4.5278
    -1.4711  -1.4710  -0.7789   7.5325   8.5644   8.5802   9.0774   9.0814
     9.1298  10.4092  10.4540  10.4546  16.3462  16.3697  18.4950  18.9221

          k = 0.2500 0.2500 0.4167     band energies (ev):

   -37.4763 -16.3500 -14.8719 -14.7905 -14.7882  -5.2200  -4.4048  -4.3979
    -1.6850  -1.3265  -0.9900   7.5862   8.0602   8.5433   8.7170   8.9824
     9.2781  10.2428  10.3952  10.5076  17.1086  17.2085  17.7918  18.3140

          k = 0.2500 0.4167 0.4167     band energies (ev):

   -37.4747 -16.3026 -14.8861 -14.8814 -14.7859  -4.8099  -4.4338  -4.3280
    -1.7387  -1.5546  -1.3068   7.6586   7.8853   8.5998   8.6643   8.6693
     9.2531  10.3356  10.4370  10.8991  17.2077  17.6390  17.6404  19.9195

          k = 0.4167 0.4167 0.4167     band energies (ev):

   -37.4733 -16.2666 -14.8804 -14.8803 -14.8799  -4.3954  -4.1960  -4.1955
    -1.9914  -1.9909  -1.7689   7.5271   8.4826   8.6663   8.6812   8.7427
     8.7431  10.8286  10.8313  10.9764  16.8219  16.8427  16.8457  20.4695

     highest occupied, lowest unoccupied level (ev):    11.1351   14.7349

!    total energy              =    -264.39610321 Ry
     Harris-Foulkes estimate   =    -265.45064068 Ry
     estimated scf accuracy    <       1.81353775 Ry

     The total energy is the sum of the following terms:

     one-electron contribution =     -62.96287085 Ry
     hartree contribution      =      49.55118355 Ry
     xc contribution           =     -42.43387644 Ry
     ewald contribution        =    -211.91466263 Ry
     scf correction            =       3.36412317 Ry

     iteration # 11     ecut=   100.00 Ry     beta=0.60
     Davidson diagonalization with overlap
     ethr =  2.43E-03,  avg # of iterations =  4.0

     negative rho (up, down):  6.344E-02 0.000E+00

     total cpu time spent up to now is        4.8 secs

     total energy              =    -277.37171350 Ry
     Harris-Foulkes estimate   =    -271.05500956 Ry
     estimated scf accuracy    <      50.82985984 Ry

     iteration # 12     ecut=   100.00 Ry     beta=0.60
     Davidson diagonalization with overlap
     ethr =  2.43E-03,  avg # of iterations =  5.0

     negative rho (up, down):  8.149E-01 0.000E+00

     total cpu time spent up to now is        5.1 secs

     total energy              =    -296.47078634 Ry
     Harris-Foulkes estimate   =    -279.81426054 Ry
     estimated scf accuracy    <      80.81796720 Ry

     iteration # 13     ecut=   100.00 Ry     beta=0.60
     Davidson diagonalization with overlap
     ethr =  2.43E-03,  avg # of iterations =  5.4

     negative rho (up, down):  7.507E-02 0.000E+00

     total cpu time spent up to now is        5.5 secs

     total energy              =    -275.98920008 Ry
     Harris-Foulkes estimate   =    -298.39552500 Ry
     estimated scf accuracy    <     118.67916135 Ry

     iteration # 14     ecut=   100.00 Ry     beta=0.60
     Davidson diagonalization with overlap
     ethr =  2.43E-03,  avg # of iterations =  4.2

     negative rho (up, down):  8.427E-03 0.000E+00

     total cpu time spent up to now is        5.8 secs

     total energy              =    -266.41185161 Ry
     Harris-Foulkes estimate   =    -277.31713300 Ry
     estimated scf accuracy    <      73.77477521 Ry

     iteration # 15     ecut=   100.00 Ry     beta=0.60
     Davidson diagonalization with overlap
     ethr =  2.43E-03,  avg # of iterations =  3.9

     negative rho (up, down):  4.701E-03 0.000E+00

     total cpu time spent up to now is        6.1 secs

     total energy              =    -267.36607109 Ry
     Harris-Foulkes estimate   =    -267.58909127 Ry
     estimated scf accuracy    <      30.10031515 Ry

     iteration # 16     ecut=   100.00 Ry     beta=0.60
     Davidson diagonalization with overlap
     ethr =  2.43E-03,  avg # of iterations =  1.0

     negative rho (up, down):  8.205E-07 0.000E+00

     total cpu time spent up to now is        6.3 secs

     total energy              =    -256.78109430 Ry
     Harris-Foulkes estimate   =    -267.38953155 Ry
     estimated scf accuracy    <      28.65598608 Ry

     iteration # 17     ecut=   100.00 Ry     beta=0.60
     Davidson diagonalization with overlap
     c_bands:  2 eigenvalues not converged
     ethr =  2.43E-03,  avg # of iterations = 10.7

     negative rho (up, down):  1.022E-07 0.000E+00

     total cpu time spent up to now is        6.8 secs

     total energy              =    -262.85362716 Ry
     Harris-Foulkes estimate   =    -267.41999271 Ry
     estimated scf accuracy    <      19.15553371 Ry

     iteration # 18     ecut=   100.00 Ry     beta=0.60
     Davidson diagonalization with overlap
     ethr =  2.43E-03,  avg # of iterations =  4.5

     negative rho (up, down):  4.835E-08 0.000E+00

     total cpu time spent up to now is        7.1 secs

     total energy              =    -264.87154651 Ry
     Harris-Foulkes estimate   =    -265.66433886 Ry
     estimated scf accuracy    <       2.18812589 Ry

     iteration # 19     ecut=   100.00 Ry     beta=0.60
     Davidson diagonalization with overlap
     ethr =  2.43E-03,  avg # of iterations =  5.8

     negative rho (up, down):  1.582E-02 0.000E+00

     total cpu time spent up to now is        7.4 secs

     total energy              =    -264.64895513 Ry
     Harris-Foulkes estimate   =    -265.00828223 Ry
     estimated scf accuracy    <       0.83037965 Ry

     iteration # 20     ecut=   100.00 Ry     beta=0.60
     Davidson diagonalization with overlap
     ethr =  2.08E-03,  avg # of iterations =  4.1

     negative rho (up, down):  2.027E-08 0.000E+00

     total cpu time spent up to now is        7.7 secs

          k = 0.0833 0.0833 0.0833     band energies (ev):

   -48.6444 -25.1342 -25.1341 -25.1340 -10.2578  -6.3699  -6.1598  -6.1596
     3.8127   3.8130   4.0187   7.6636   7.6652   7.6917   8.4120   8.4149
     9.0569   9.2622   9.9252   9.9293  10.3709  10.4169  10.4231  12.4231

          k = 0.0833 0.0833 0.2500     band energies (ev):

   -48.6439 -25.1551 -25.1332 -25.1331 -10.0798  -6.6019  -6.1427  -5.9459
     3.9028   3.9144   4.3306   6.3226   7.3187   7.4120   7.9290   8.1518
     8.6755   8.8928   9.5125   9.6333  10.3678  11.1925  11.2572  12.4225

          k = 0.0833 0.0833 0.4167     band energies (ev):

   -48.6434 -25.1761 -25.1323 -25.1322  -9.8729  -6.9116  -6.1254  -5.6531
     4.0204   4.1737   4.4249   5.3531   6.9881   7.0675   7.4325   8.1707
     8.6343   8.6641   9.1103   9.1738  10.3217  11.9131  11.9709  12.4064

          k = 0.0833 0.2500 0.2500     band energies (ev):

   -48.6434 -25.1543 -25.1539 -25.1322  -9.9331  -6.5658  -6.0492  -5.9970
     3.7318   3.9131   4.6525   6.0479   6.1601   7.0262   7.5765   7.6612
     8.3080   9.0110   9.2938  10.0373  11.1799  11.2991  11.5305  13.0697

          k = 0.0833 0.2500 0.4167     band energies (ev):

   -48.6429 -25.1749 -25.1530 -25.1313  -9.7685  -6.6983  -6.0443  -5.7830
     3.7424   3.9655   4.6886   5.0556   6.0155   6.4615   7.0885   7.7543
     8.1628   9.0554   9.3179   9.8835  11.2689  11.9056  12.0383  13.1772

          k = 0.0833 0.4167 0.4167     band energies (ev):

   -48.6424 -25.1738 -25.1737 -25.1304  -9.6555  -6.5225  -5.9286  -5.8968
     3.6860   3.7435   4.6422   4.9488   4.9731   6.1306   7.0810   7.2113
     7.7061   9.6565   9.7788  10.1277  11.8993  11.9488  12.2656  13.4109

          k = 0.2500 0.2500 0.2500     band energies (ev):

   -48.6429 -25.1534 -25.1529 -25.1529  -9.8127  -6.4105  -6.0163  -6.0162
     3.4398   3.4401   4.9404   5.8924   5.9997   6.0011   7.0550   7.9051
     7.9081   9.5390   9.6051   9.6089  11.5523  11.7513  11.7718  14.5443

          k = 0.2500 0.2500 0.4167     band energies (ev):

   -48.6424 -25.1737 -25.1522 -25.1519  -9.6815  -6.4472  -5.9827  -5.8316
     3.1651   3.4159   4.3409   4.9736   5.9246   6.1391   6.7467   8.0085
     8.2212   9.2582   9.6291   9.7740  11.8277  12.1326  12.2303  14.5128

          k = 0.2500 0.4167 0.4167     band energies (ev):

   -48.6419 -25.1727 -25.1725 -25.1511  -9.5894  -6.2319  -5.8786  -5.8685
     2.9615   3.0317   3.5686   4.9457   4.9754   6.1099   7.2688   7.8985
     8.1583   9.6363   9.8093  10.0363  12.3053  12.3409  12.4698  14.9888

          k = 0.4167 0.4167 0.4167     band energies (ev):

   -48.6414 -25.1717 -25.1716 -25.1715  -9.5207  -5.9278  -5.8269  -5.8269
     2.5354   2.5355   2.7739   4.9422   4.9425   5.0455   8.0568   8.3659
     8.3664   9.9814   9.9847  10.0749  12.6605  12.6945  12.6994  16.2579

     highest occupied, lowest unoccupied level (ev):    10.1277   10.3217

!    total energy              =    -264.24325482 Ry
     Harris-Foulkes estimate   =    -265.17101617 Ry
     estimated scf accuracy    <       1.95185001 Ry

     The total energy is the sum of the following terms:

     one-electron contribution =     -75.67491800 Ry
     hartree contribution      =      59.32599069 Ry
     xc contribution           =     -42.85407159 Ry
     ewald contribution        =    -211.91466263 Ry
     scf correction            =       6.87440672 Ry

     iteration # 21     ecut=   100.00 Ry     beta=0.60
     Davidson diagonalization with overlap
     ethr =  2.08E-03,  avg # of iterations =  3.2

     negative rho (up, down):  2.353E-08 0.000E+00

     total cpu time spent up to now is        8.0 secs

     total energy              =    -264.84149262 Ry
     Harris-Foulkes estimate   =    -264.87869266 Ry
     estimated scf accuracy    <       0.29789726 Ry

     iteration # 22     ecut=   100.00 Ry     beta=0.60
     Davidson diagonalization with overlap
     ethr =  7.45E-04,  avg # of iterations =  1.7

     total cpu time spent up to now is        8.2 secs

     total energy              =    -264.78674273 Ry
     Harris-Foulkes estimate   =    -264.84700274 Ry
     estimated scf accuracy    <       0.19304906 Ry

     iteration # 23     ecut=   100.00 Ry     beta=0.60
     Davidson diagonalization with overlap
     ethr =  4.83E-04,  avg # of iterations =  3.2

     total cpu time spent up to now is        8.4 secs

     total energy              =    -264.80722844 Ry
     Harris-Foulkes estimate   =    -264.80962653 Ry
     estimated scf accuracy    <       0.01352644 Ry

     iteration # 24     ecut=   100.00 Ry     beta=0.60
     Davidson diagonalization with overlap
     ethr =  3.38E-05,  avg # of iterations =  4.5

     total cpu time spent up to now is        8.7 secs

     total energy              =    -264.80957280 Ry
     Harris-Foulkes estimate   =    -264.81215058 Ry
     estimated scf accuracy    <       0.01700306 Ry

     iteration # 25     ecut=   100.00 Ry     beta=0.60
     Davidson diagonalization with overlap
     ethr =  3.38E-05,  avg # of iterations =  1.0

     negative rho (up, down):  1.158E-08 0.000E+00

     total cpu time spent up to now is        8.9 secs

     total energy              =    -264.80569914 Ry
     Harris-Foulkes estimate   =    -264.80976512 Ry
     estimated scf accuracy    <       0.01262443 Ry

     iteration # 26     ecut=   100.00 Ry     beta=0.60
     Davidson diagonalization with overlap
     ethr =  3.16E-05,  avg # of iterations =  2.8

     total cpu time spent up to now is        9.1 secs

     total energy              =    -264.80533968 Ry
     Harris-Foulkes estimate   =    -264.80765291 Ry
     estimated scf accuracy    <       0.00479686 Ry

     iteration # 27     ecut=   100.00 Ry     beta=0.60
     Davidson diagonalization with overlap
     ethr =  1.20E-05,  avg # of iterations =  3.1

     negative rho (up, down):  1.106E-08 0.000E+00

     total cpu time spent up to now is        9.4 secs

     total energy              =    -264.80557813 Ry
     Harris-Foulkes estimate   =    -264.80673735 Ry
     estimated scf accuracy    <       0.00268514 Ry

     iteration # 28     ecut=   100.00 Ry     beta=0.60
     Davidson diagonalization with overlap
     ethr =  6.71E-06,  avg # of iterations =  3.5

     total cpu time spent up to now is        9.6 secs

     total energy              =    -264.80611432 Ry
     Harris-Foulkes estimate   =    -264.80613978 Ry
     estimated scf accuracy    <       0.00006145 Ry

     iteration # 29     ecut=   100.00 Ry     beta=0.60
     Davidson diagonalization with overlap
     ethr =  1.54E-07,  avg # of iterations =  5.3

     total cpu time spent up to now is       10.0 secs

     total energy              =    -264.80618547 Ry
     Harris-Foulkes estimate   =    -264.80619120 Ry
     estimated scf accuracy    <       0.00001697 Ry

     iteration # 30     ecut=   100.00 Ry     beta=0.60
     Davidson diagonalization with overlap
     ethr =  4.24E-08,  avg # of iterations =  2.0

     total cpu time spent up to now is       10.2 secs

          k = 0.0833 0.0833 0.0833     band energies (ev):

   -44.6917 -21.2922 -21.2916 -21.2916 -13.7050  -5.7491  -5.0443  -5.0443
     1.2465   1.2465   1.4040   8.3826   8.6057   8.6057   9.3355   9.3355
     9.7753  10.3864  10.7152  10.7152  13.0685  13.1269  13.1269  15.7508

          k = 0.0833 0.0833 0.2500     band energies (ev):

   -44.6911 -21.3244 -21.2905 -21.2903 -13.6363  -5.8390  -5.0198  -4.9296
     1.3011   1.3212   1.6332   7.6289   8.3025   8.3844   8.8730   8.8853
     9.6436   9.7002  10.4030  10.4059  13.1653  13.9194  13.9301  15.7606

          k = 0.0833 0.0833 0.4167     band energies (ev):

   -44.6904 -21.3565 -21.2891 -21.2889 -13.5654  -6.0178  -4.9949  -4.6954
     1.3566   1.4979   1.7512   6.8591   8.0338   8.1075   8.3081   8.6541
     9.4209   9.5948  10.0364  10.1444  13.2297  14.6768  14.6861  15.7590

          k = 0.0833 0.2500 0.2500     band energies (ev):

   -44.6904 -21.3232 -21.3217 -21.2890 -13.5791  -5.7395  -4.9962  -4.9274
     1.2197   1.3219   1.7512   7.2802   7.8463   8.0248   8.4433   8.6293
     9.2457   9.9407  10.0158  10.4930  13.9047  14.0449  14.2790  16.2848

          k = 0.0833 0.2500 0.4167     band energies (ev):

   -44.6897 -21.3541 -21.3205 -21.2876 -13.5205  -5.7587  -4.9477  -4.8094
     1.2201   1.4186   1.6756   6.7696   7.3754   7.6788   8.1195   8.4902
     9.3629   9.7064   9.9061  10.4617  14.0212  14.7132  14.8310  16.3859

          k = 0.0833 0.4167 0.4167     band energies (ev):

   -44.6891 -21.3519 -21.3515 -21.2863 -13.4744  -5.4810  -4.9433  -4.8869
     1.1901   1.2392   1.6386   6.5998   6.8896   7.0092   8.1254   8.1420
     9.1442   9.9694  10.1415  10.8153  14.7254  14.7606  15.1489  16.5833

          k = 0.2500 0.2500 0.2500     band energies (ev):

   -44.6897 -21.3219 -21.3201 -21.3201 -13.5292  -5.5625  -4.9365  -4.9365
     1.0396   1.0396   1.8231   7.0405   7.7885   7.7885   8.3312   8.4993
     8.4993  10.2453  10.2453  10.2849  14.4035  14.4035  14.4061  17.5519

          k = 0.2500 0.2500 0.4167     band energies (ev):

   -44.6891 -21.3521 -21.3194 -21.3186 -13.4780  -5.4880  -4.8742  -4.8300
     0.8586   1.0700   1.5500   6.7456   7.3913   7.7547   7.8162   8.4955
     8.6769  10.0126  10.3580  10.3905  14.5184  14.9170  14.9632  17.5176

          k = 0.2500 0.4167 0.4167     band energies (ev):

   -44.6884 -21.3501 -21.3498 -21.3174 -13.4347  -5.1938  -4.8478  -4.8136
     0.7412   0.7973   1.1549   6.6163   7.0113   7.6045   7.8629   8.4311
     8.5334  10.2813  10.4032  10.8071  15.0445  15.0576  15.2777  17.8601

          k = 0.4167 0.4167 0.4167     band energies (ev):

   -44.6878 -21.3484 -21.3481 -21.3481 -13.3943  -4.8781  -4.7445  -4.7445
     0.4302   0.4302   0.6239   6.4908   7.0170   7.0170   8.3113   8.5955
     8.5955  10.7459  10.7459  10.8522  15.4123  15.4123  15.4176  18.3781

     highest occupied, lowest unoccupied level (ev):    10.8522   13.0685

!    total energy              =    -264.80618614 Ry
     Harris-Foulkes estimate   =    -264.80618700 Ry
     estimated scf accuracy    <       0.00000204 Ry

     The total energy is the sum of the following terms:

     one-electron contribution =     -68.19947114 Ry
     hartree contribution      =      58.11933974 Ry
     xc contribution           =     -42.80452829 Ry
     ewald contribution        =    -211.91466263 Ry
     scf correction            =      -0.00686382 Ry

     iteration # 31     ecut=   100.00 Ry     beta=0.60
     Davidson diagonalization with overlap
     ethr =  5.11E-09,  avg # of iterations =  3.7

     total cpu time spent up to now is       10.5 secs

     total energy              =    -264.80618660 Ry
     Harris-Foulkes estimate   =    -264.80618681 Ry
     estimated scf accuracy    <       0.00000059 Ry

     iteration # 32     ecut=   100.00 Ry     beta=0.60
     Davidson diagonalization with overlap
     ethr =  1.49E-09,  avg # of iterations =  3.1

     total cpu time spent up to now is       10.7 secs

     total energy              =    -264.80618670 Ry
     Harris-Foulkes estimate   =    -264.80618672 Ry
     estimated scf accuracy    <       0.00000005 Ry

     iteration # 33     ecut=   100.00 Ry     beta=0.60
     Davidson diagonalization with overlap
     ethr =  1.29E-10,  avg # of iterations =  5.4

     total cpu time spent up to now is       11.1 secs

     total energy              =    -264.80618672 Ry
     Harris-Foulkes estimate   =    -264.80618672 Ry
     estimated scf accuracy    <          7.2E-09 Ry

     iteration # 34     ecut=   100.00 Ry     beta=0.60
     Davidson diagonalization with overlap
     ethr =  1.80E-11,  avg # of iterations =  3.2

     total cpu time spent up to now is       11.3 secs

     total energy              =    -264.80618672 Ry
     Harris-Foulkes estimate   =    -264.80618672 Ry
     estimated scf accuracy    <          2.1E-10 Ry

     iteration # 35     ecut=   100.00 Ry     beta=0.60
     Davidson diagonalization with overlap
     ethr =  5.31E-13,  avg # of iterations =  5.0

     total cpu time spent up to now is       11.7 secs

     total energy              =    -264.80618672 Ry
     Harris-Foulkes estimate   =    -264.80618672 Ry
     estimated scf accuracy    <          4.6E-11 Ry

     iteration # 36     ecut=   100.00 Ry     beta=0.60
     Davidson diagonalization with overlap
     ethr =  1.14E-13,  avg # of iterations =  2.9

     total cpu time spent up to now is       12.0 secs

     End of self-consistent calculation

          k = 0.0833 0.0833 0.0833 (  6850 PWs)   bands (ev):

   -44.6940 -21.2945 -21.2939 -21.2939 -13.7009  -5.7514  -5.0472  -5.0472
     1.2496   1.2496   1.4071   8.3807   8.6038   8.6038   9.3331   9.3331
     9.7726  10.3838  10.7125  10.7125  13.0666  13.1250  13.1250  15.7485

          k = 0.0833 0.0833 0.2500 (  6839 PWs)   bands (ev):

   -44.6933 -21.3267 -21.2928 -21.2926 -13.6321  -5.8414  -5.0226  -4.9324
     1.3043   1.3243   1.6364   7.6268   8.3005   8.3823   8.8710   8.8831
     9.6411   9.6977  10.4004  10.4034  13.1634  13.9174  13.9280  15.7583

          k = 0.0833 0.0833 0.4167 (  6839 PWs)   bands (ev):

   -44.6927 -21.3588 -21.2914 -21.2912 -13.5611  -6.0201  -4.9978  -4.6981
     1.3598   1.5012   1.7542   6.8568   8.0317   8.1053   8.3060   8.6524
     9.4186   9.5924  10.0339  10.1417  13.2277  14.6745  14.6838  15.7567

          k = 0.0833 0.2500 0.2500 (  6847 PWs)   bands (ev):

   -44.6927 -21.3255 -21.3240 -21.2913 -13.5749  -5.7419  -4.9989  -4.9302
     1.2227   1.3251   1.7545   7.2781   7.8440   8.0227   8.4414   8.6271
     9.2433   9.9382  10.0133  10.4905  13.9026  14.0427  14.2772  16.2824

          k = 0.0833 0.2500 0.4167 (  6833 PWs)   bands (ev):

   -44.6920 -21.3564 -21.3228 -21.2899 -13.5162  -5.7611  -4.9506  -4.8121
     1.2231   1.4216   1.6789   6.7673   7.3734   7.6766   8.1174   8.4884
     9.3606   9.7040   9.9036  10.4591  14.0190  14.7109  14.8290  16.3836

          k = 0.0833 0.4167 0.4167 (  6854 PWs)   bands (ev):

   -44.6913 -21.3542 -21.3538 -21.2886 -13.4701  -5.4836  -4.9458  -4.8896
     1.1929   1.2421   1.6421   6.5976   6.8879   7.0068   8.1234   8.1400
     9.1417   9.9672  10.1392  10.8125  14.7231  14.7583  15.1469  16.5810

          k = 0.2500 0.2500 0.2500 (  6881 PWs)   bands (ev):

   -44.6920 -21.3242 -21.3224 -21.3224 -13.5249  -5.5649  -4.9393  -4.9393
     1.0425   1.0425   1.8264   7.0385   7.7861   7.7861   8.3289   8.4976
     8.4976  10.2427  10.2427  10.2821  14.4015  14.4015  14.4040  17.5494

          k = 0.2500 0.2500 0.4167 (  6839 PWs)   bands (ev):

   -44.6913 -21.3544 -21.3217 -21.3209 -13.4737  -5.4905  -4.8770  -4.8327
     0.8615   1.0728   1.5532   6.7433   7.3893   7.7523   7.8141   8.4941
     8.6751  10.0100  10.3555  10.3877  14.5162  14.9148  14.9610  17.5151

          k = 0.2500 0.4167 0.4167 (  6851 PWs)   bands (ev):

   -44.6907 -21.3524 -21.3521 -21.3197 -13.4304  -5.1964  -4.8505  -4.8164
     0.7440   0.8000   1.1578   6.6141   7.0088   7.6029   7.8607   8.4296
     8.5320  10.2786  10.4006  10.8041  15.0422  15.0554  15.2756  17.8581

          k = 0.4167 0.4167 0.4167 (  6854 PWs)   bands (ev):

   -44.6900 -21.3507 -21.3504 -21.3504 -13.3899  -4.8808  -4.7473  -4.7473
     0.4329   0.4329   0.6265   6.4886   7.0146   7.0146   8.3100   8.5943
     8.5943  10.7430  10.7430  10.8492  15.4100  15.4100  15.4154  18.3788

     highest occupied, lowest unoccupied level (ev):    10.8492   13.0666

!    total energy              =    -264.80618672 Ry
     Harris-Foulkes estimate   =    -264.80618672 Ry
     estimated scf accuracy    <          4.3E-13 Ry

     The total energy is the sum of the following terms:

     one-electron contribution =     -68.20450049 Ry
     hartree contribution      =      58.11722803 Ry
     xc contribution           =     -42.80425163 Ry
     ewald contribution        =    -211.91466263 Ry

     convergence has been achieved in  36 iterations

     Forces acting on atoms (cartesian axes, Ry/au):

     atom    1 type  3   force =     0.00000000   -0.00000000    0.00000000
     atom    2 type  2   force =     0.00000000    0.00000000    0.00000000
     atom    3 type  1   force =     0.00000000    0.00000000    0.00000000
     atom    4 type  1   force =     0.00000000    0.00000000    0.00000000
     atom    5 type  1   force =     0.00000000    0.00000000    0.00000000

     Total force =     0.000000     Total SCF correction =     0.000000


     Computing stress (Cartesian axis) and pressure

          total   stress  (Ry/bohr**3)                   (kbar)     P=   28.77
   0.00019561   0.00000000   0.00000000         28.77      0.00      0.00
   0.00000000   0.00019561   0.00000000          0.00     28.77      0.00
   0.00000000   0.00000000   0.00019561          0.00      0.00     28.77


     BFGS Geometry Optimization

     number of scf cycles    =   1
     number of bfgs steps    =   0

     enthalpy new            =    -264.8061867236 Ry

     new trust radius        =       0.0196881468 bohr
     new conv_thr            =            1.0E-12 Ry

     new unit-cell volume =    411.19801 a.u.^3 (    60.93326 Ang^3 )
     density =      6.35457 g/cm^3

CELL_PARAMETERS (alat=  7.40000000)
   1.004890207   0.000000000   0.000000000
   0.000000000   1.004890207   0.000000000
   0.000000000   0.000000000   1.004890207

ATOMIC_POSITIONS (crystal)
Ba       0.000000000  -0.000000000   0.000000000
Ti       0.500000000   0.500000000   0.500000000
O        0.000000000   0.500000000   0.500000000
O        0.500000000   0.000000000   0.500000000
O        0.500000000   0.500000000   0.000000000



     Writing output data file bto.save
     NEW-OLD atomic charge density approx. for the potential

     negative rho (up, down):  2.710E-08 0.000E+00
     extrapolated charge   40.42132, renormalised to   40.00000

     total cpu time spent up to now is       13.1 secs

     per-process dynamical memory:    77.2 Mb

     Self-consistent Calculation

     iteration #  1     ecut=   100.00 Ry     beta=0.60
     Davidson diagonalization with overlap
     ethr =  1.00E-06,  avg # of iterations = 10.6

     negative rho (up, down):  1.271E-08 0.000E+00

     total cpu time spent up to now is       13.7 secs

     total energy              =    -264.74867666 Ry
     Harris-Foulkes estimate   =    -264.18574142 Ry
     estimated scf accuracy    <       0.07718770 Ry

     iteration #  2     ecut=   100.00 Ry     beta=0.60
     Davidson diagonalization with overlap
     ethr =  1.93E-04,  avg # of iterations =  4.5

     total cpu time spent up to now is       14.0 secs

     total energy              =    -264.78593394 Ry
     Harris-Foulkes estimate   =    -264.83721275 Ry
     estimated scf accuracy    <       0.12174333 Ry

     iteration #  3     ecut=   100.00 Ry     beta=0.60
     Davidson diagonalization with overlap
     ethr =  1.93E-04,  avg # of iterations =  3.2

     total cpu time spent up to now is       14.3 secs

     total energy              =    -264.80399987 Ry
     Harris-Foulkes estimate   =    -264.81135997 Ry
     estimated scf accuracy    <       0.02345029 Ry

     iteration #  4     ecut=   100.00 Ry     beta=0.60
     Davidson diagonalization with overlap
     ethr =  5.86E-05,  avg # of iterations =  2.6

     total cpu time spent up to now is       14.5 secs

     total energy              =    -264.80608383 Ry
     Harris-Foulkes estimate   =    -264.80717283 Ry
     estimated scf accuracy    <       0.00187511 Ry

     iteration #  5     ecut=   100.00 Ry     beta=0.60
     Davidson diagonalization with overlap
     ethr =  4.69E-06,  avg # of iterations =  5.0

     total cpu time spent up to now is       14.8 secs

     total energy              =    -264.80672136 Ry
     Harris-Foulkes estimate   =    -264.80676578 Ry
     estimated scf accuracy    <       0.00018437 Ry

     iteration #  6     ecut=   100.00 Ry     beta=0.60
     Davidson diagonalization with overlap
     ethr =  4.61E-07,  avg # of iterations =  4.4

     total cpu time spent up to now is       15.1 secs

     total energy              =    -264.80674617 Ry
     Harris-Foulkes estimate   =    -264.80675211 Ry
     estimated scf accuracy    <       0.00002043 Ry

     iteration #  7     ecut=   100.00 Ry     beta=0.60
     Davidson diagonalization with overlap
     ethr =  5.11E-08,  avg # of iterations =  5.0

     total cpu time spent up to now is       15.4 secs

     total energy              =    -264.80675504 Ry
     Harris-Foulkes estimate   =    -264.80675507 Ry
     estimated scf accuracy    <       0.00000010 Ry

     iteration #  8     ecut=   100.00 Ry     beta=0.60
     Davidson diagonalization with overlap
     ethr =  2.47E-10,  avg # of iterations =  6.4

     total cpu time spent up to now is       15.8 secs

     total energy              =    -264.80675527 Ry
     Harris-Foulkes estimate   =    -264.80675532 Ry
     estimated scf accuracy    <       0.00000013 Ry

     iteration #  9     ecut=   100.00 Ry     beta=0.60
     Davidson diagonalization with overlap
     ethr =  2.47E-10,  avg # of iterations =  2.9

     total cpu time spent up to now is       16.0 secs

     total energy              =    -264.80675529 Ry
     Harris-Foulkes estimate   =    -264.80675529 Ry
     estimated scf accuracy    <          9.5E-09 Ry

     iteration # 10     ecut=   100.00 Ry     beta=0.60
     Davidson diagonalization with overlap
     ethr =  2.38E-11,  avg # of iterations =  4.0

     total cpu time spent up to now is       16.3 secs

          k = 0.0829 0.0829 0.0829     band energies (ev):

   -44.9795 -21.5680 -21.5675 -21.5675 -13.9534  -5.9403  -5.2292  -5.2292
     1.0034   1.0034   1.1532   8.1539   8.3720   8.3720   9.1456   9.1456
     9.5779  10.1525  10.4776  10.4776  12.8120  12.8692  12.8692  15.4179

          k = 0.0829 0.0829 0.2488     band energies (ev):

   -44.9789 -21.5979 -21.5665 -21.5662 -13.8898  -6.0175  -5.2057  -5.1255
     1.0559   1.0735   1.3692   7.4222   8.0854   8.1715   8.6771   8.6946
     9.4486   9.4795  10.1726  10.1738  12.9059  13.6436  13.6530  15.4239

          k = 0.0829 0.0829 0.4146     band energies (ev):

   -44.9783 -21.6277 -21.5651 -21.5649 -13.8242  -6.1807  -5.1819  -4.9075
     1.1094   1.2417   1.4784   6.6740   7.8350   7.9106   8.1168   8.4572
     9.2260   9.3769   9.8109   9.9219  12.9680  14.3810  14.3890  15.4212

          k = 0.0829 0.2488 0.2488     band energies (ev):

   -44.9783 -21.5968 -21.5954 -21.5651 -13.8366  -5.9183  -5.1871  -5.1207
     0.9752   1.0756   1.4802   7.0853   7.6418   7.8351   8.2277   8.4471
     9.0361   9.7352   9.7939  10.2604  13.6279  13.7642  13.9963  15.9369

          k = 0.0829 0.2488 0.4146     band energies (ev):

   -44.9776 -21.6256 -21.5943 -21.5638 -13.7820  -5.9297  -5.1397  -5.0142
     0.9772   1.1640   1.4080   6.5855   7.1989   7.4797   7.9276   8.2952
     9.1454   9.4939   9.6923  10.2376  13.7404  14.4155  14.5334  16.0349

          k = 0.0829 0.4146 0.4146     band energies (ev):

   -44.9770 -21.6236 -21.6232 -21.5626 -13.7389  -5.6588  -5.1406  -5.0860
     0.9438   0.9923   1.3743   6.4120   6.7192   6.8323   7.9410   7.9665
     8.9169   9.7441   9.9116  10.5921  14.4266  14.4606  14.8447  16.2262

          k = 0.2488 0.2488 0.2488     band energies (ev):

   -44.9776 -21.5956 -21.5940 -21.5940 -13.7900  -5.7467  -5.1300  -5.1300
     0.8057   0.8057   1.5465   6.8546   7.5907   7.5907   8.1232   8.2974
     8.2974  10.0230  10.0230  10.0770  14.1146  14.1166  14.1166  17.1853

          k = 0.2488 0.2488 0.4146     band energies (ev):

   -44.9770 -21.6237 -21.5933 -21.5926 -13.7423  -5.6686  -5.0704  -5.0333
     0.6352   0.8326   1.2882   6.5593   7.2102   7.5587   7.6110   8.2773
     8.4676   9.8045  10.1354  10.1804  14.2248  14.6176  14.6584  17.1509

          k = 0.2488 0.4146 0.4146     band energies (ev):

   -44.9764 -21.6219 -21.6217 -21.5915 -13.7017  -5.3833  -5.0493  -5.0159
     0.5217   0.5726   0.9147   6.4238   6.8348   7.4076   7.6574   8.2199
     8.3138  10.0667  10.1831  10.5864  14.7377  14.7507  14.9679  17.4923

          k = 0.4146 0.4146 0.4146     band energies (ev):

   -44.9758 -21.6204 -21.6201 -21.6201 -13.6637  -5.0803  -4.9509  -4.9509
     0.2242   0.2242   0.4085   6.2928   6.8405   6.8405   8.0865   8.3614
     8.3614  10.5266  10.5266  10.6319  15.0971  15.0971  15.1012  18.0721

     highest occupied, lowest unoccupied level (ev):    10.6319   12.8120

!    total energy              =    -264.80675529 Ry
     Harris-Foulkes estimate   =    -264.80675529 Ry
     estimated scf accuracy    <          1.3E-09 Ry

     The total energy is the sum of the following terms:

     one-electron contribution =     -69.64366141 Ry
     hartree contribution      =      58.46863523 Ry
     xc contribution           =     -42.74848886 Ry
     ewald contribution        =    -210.88339910 Ry
     scf correction            =       0.00015884 Ry

     iteration # 11     ecut=   100.00 Ry     beta=0.60
     Davidson diagonalization with overlap
     ethr =  3.16E-12,  avg # of iterations =  4.3

     total cpu time spent up to now is       16.5 secs

     total energy              =    -264.80675529 Ry
     Harris-Foulkes estimate   =    -264.80675529 Ry
     estimated scf accuracy    <          2.4E-11 Ry

     iteration # 12     ecut=   100.00 Ry     beta=0.60
     Davidson diagonalization with overlap
     ethr =  1.00E-13,  avg # of iterations =  5.2

     total cpu time spent up to now is       16.9 secs

     total energy              =    -264.80675529 Ry
     Harris-Foulkes estimate   =    -264.80675529 Ry
     estimated scf accuracy    <          2.0E-12 Ry

     iteration # 13     ecut=   100.00 Ry     beta=0.60
     Davidson diagonalization with overlap
     ethr =  1.00E-13,  avg # of iterations =  1.0

     total cpu time spent up to now is       17.1 secs

     End of self-consistent calculation

          k = 0.0829 0.0829 0.0829 (  6850 PWs)   bands (ev):

   -44.9794 -21.5679 -21.5674 -21.5674 -13.9534  -5.9403  -5.2292  -5.2292
     1.0034   1.0034   1.1532   8.1539   8.3720   8.3720   9.1456   9.1456
     9.5779  10.1525  10.4776  10.4776  12.8120  12.8693  12.8693  15.4180

          k = 0.0829 0.0829 0.2488 (  6839 PWs)   bands (ev):

   -44.9787 -21.5977 -21.5663 -21.5661 -13.8898  -6.0175  -5.2057  -5.1255
     1.0559   1.0735   1.3692   7.4222   8.0854   8.1715   8.6771   8.6946
     9.4486   9.4795  10.1726  10.1738  12.9060  13.6437  13.6530  15.4240

          k = 0.0829 0.0829 0.4146 (  6839 PWs)   bands (ev):

   -44.9781 -21.6276 -21.5650 -21.5648 -13.8242  -6.1808  -5.1819  -4.9075
     1.1094   1.2417   1.4784   6.6741   7.8350   7.9106   8.1168   8.4572
     9.2260   9.3769   9.8109   9.9219  12.9681  14.3811  14.3891  15.4213

          k = 0.0829 0.2488 0.2488 (  6847 PWs)   bands (ev):

   -44.9781 -21.5967 -21.5953 -21.5649 -13.8366  -5.9183  -5.1871  -5.1207
     0.9752   1.0756   1.4803   7.0853   7.6418   7.8351   8.2277   8.4471
     9.0361   9.7352   9.7939  10.2604  13.6280  13.7642  13.9963  15.9370

          k = 0.0829 0.2488 0.4146 (  6833 PWs)   bands (ev):

   -44.9775 -21.6254 -21.5942 -21.5637 -13.7820  -5.9297  -5.1397  -5.0142
     0.9772   1.1640   1.4080   6.5855   7.1989   7.4797   7.9276   8.2952
     9.1454   9.4939   9.6923  10.2376  13.7405  14.4156  14.5334  16.0350

          k = 0.0829 0.4146 0.4146 (  6854 PWs)   bands (ev):

   -44.9769 -21.6234 -21.6231 -21.5625 -13.7389  -5.6588  -5.1406  -5.0860
     0.9438   0.9923   1.3743   6.4120   6.7192   6.8323   7.9410   7.9665
     8.9169   9.7441   9.9116  10.5921  14.4267  14.4606  14.8447  16.2263

          k = 0.2488 0.2488 0.2488 (  6881 PWs)   bands (ev):

   -44.9775 -21.5954 -21.5939 -21.5939 -13.7899  -5.7467  -5.1300  -5.1300
     0.8057   0.8057   1.5465   6.8546   7.5907   7.5907   8.1232   8.2974
     8.2974  10.0230  10.0230  10.0770  14.1147  14.1166  14.1166  17.1854

          k = 0.2488 0.2488 0.4146 (  6839 PWs)   bands (ev):

   -44.9769 -21.6236 -21.5932 -21.5925 -13.7422  -5.6686  -5.0704  -5.0333
     0.6352   0.8326   1.2882   6.5593   7.2102   7.5587   7.6110   8.2773
     8.4676   9.8044  10.1354  10.1804  14.2249  14.6177  14.6585  17.1510

          k = 0.2488 0.4146 0.4146 (  6851 PWs)   bands (ev):

   -44.9763 -21.6218 -21.6215 -21.5914 -13.7016  -5.3833  -5.0493  -5.0159
     0.5217   0.5726   0.9147   6.4238   6.8348   7.4076   7.6574   8.2199
     8.3138  10.0667  10.1831  10.5864  14.7378  14.7507  14.9680  17.4924

          k = 0.4146 0.4146 0.4146 (  6854 PWs)   bands (ev):

   -44.9757 -21.6202 -21.6200 -21.6200 -13.6637  -5.0803  -4.9509  -4.9509
     0.2242   0.2242   0.4086   6.2928   6.8405   6.8405   8.0865   8.3615
     8.3615  10.5266  10.5266  10.6319  15.0972  15.0972  15.1012  18.0721

     highest occupied, lowest unoccupied level (ev):    10.6319   12.8120

!    total energy              =    -264.80675529 Ry
     Harris-Foulkes estimate   =    -264.80675529 Ry
     estimated scf accuracy    <          3.7E-13 Ry

     The total energy is the sum of the following terms:

     one-electron contribution =     -69.64352354 Ry
     hartree contribution      =      58.46866218 Ry
     xc contribution           =     -42.74849483 Ry
     ewald contribution        =    -210.88339910 Ry

     convergence has been achieved in  13 iterations

     Forces acting on atoms (cartesian axes, Ry/au):

     atom    1 type  3   force =     0.00000000   -0.00000000    0.00000000
     atom    2 type  2   force =     0.00000000    0.00000000    0.00000000
     atom    3 type  1   force =     0.00000000    0.00000000    0.00000000
     atom    4 type  1   force =     0.00000000   -0.00000000    0.00000000
     atom    5 type  1   force =     0.00000000    0.00000000   -0.00000000

     Total force =     0.000000     Total SCF correction =     0.000000


     Computing stress (Cartesian axis) and pressure

          total   stress  (Ry/bohr**3)                   (kbar)     P=   -1.04
  -0.00000707   0.00000000   0.00000000         -1.04      0.00      0.00
   0.00000000  -0.00000707   0.00000000          0.00     -1.04      0.00
   0.00000000   0.00000000  -0.00000707          0.00      0.00     -1.04


     number of scf cycles    =   2
     number of bfgs steps    =   1

     enthalpy old            =    -264.8061867236 Ry
     enthalpy new            =    -264.8067552915 Ry

     CASE: enthalpy_new < enthalpy_old

     new trust radius        =       0.0006950161 bohr
     new conv_thr            =            1.0E-14 Ry

     new unit-cell volume =    410.98664 a.u.^3 (    60.90194 Ang^3 )
     density =      6.35784 g/cm^3

CELL_PARAMETERS (alat=  7.40000000)
   1.004717997   0.000000000   0.000000000
   0.000000000   1.004717997   0.000000000
   0.000000000   0.000000000   1.004717997

ATOMIC_POSITIONS (crystal)
Ba       0.000000000  -0.000000000   0.000000000
Ti       0.500000000   0.500000000   0.500000000
O        0.000000000   0.500000000   0.500000000
O        0.500000000  -0.000000000   0.500000000
O        0.500000000   0.500000000  -0.000000000



     Writing output data file bto.save
     NEW-OLD atomic charge density approx. for the potential
     extrapolated charge   39.98509, renormalised to   40.00000

     total cpu time spent up to now is       18.2 secs

     per-process dynamical memory:    77.2 Mb

     Self-consistent Calculation

     iteration #  1     ecut=   100.00 Ry     beta=0.60
     Davidson diagonalization with overlap
     ethr =  1.00E-06,  avg # of iterations =  2.1

     total cpu time spent up to now is       18.5 secs

     total energy              =    -264.80668320 Ry
     Harris-Foulkes estimate   =    -264.82948632 Ry
     estimated scf accuracy    <       0.00009625 Ry

     iteration #  2     ecut=   100.00 Ry     beta=0.60
     Davidson diagonalization with overlap
     ethr =  2.41E-07,  avg # of iterations =  4.0

     total cpu time spent up to now is       18.8 secs

     total energy              =    -264.80673302 Ry
     Harris-Foulkes estimate   =    -264.80679690 Ry
     estimated scf accuracy    <       0.00015121 Ry

     iteration #  3     ecut=   100.00 Ry     beta=0.60
     Davidson diagonalization with overlap
     ethr =  2.41E-07,  avg # of iterations =  2.8

     total cpu time spent up to now is       19.0 secs

     total energy              =    -264.80675325 Ry
     Harris-Foulkes estimate   =    -264.80676034 Ry
     estimated scf accuracy    <       0.00002091 Ry

     iteration #  4     ecut=   100.00 Ry     beta=0.60
     Davidson diagonalization with overlap
     ethr =  5.23E-08,  avg # of iterations =  2.3

     total cpu time spent up to now is       19.3 secs

     total energy              =    -264.80675522 Ry
     Harris-Foulkes estimate   =    -264.80675674 Ry
     estimated scf accuracy    <       0.00000255 Ry

     iteration #  5     ecut=   100.00 Ry     beta=0.60
     Davidson diagonalization with overlap
     ethr =  6.37E-09,  avg # of iterations =  3.2

     total cpu time spent up to now is       19.5 secs

     total energy              =    -264.80675605 Ry
     Harris-Foulkes estimate   =    -264.80675609 Ry
     estimated scf accuracy    <       0.00000015 Ry

     iteration #  6     ecut=   100.00 Ry     beta=0.60
     Davidson diagonalization with overlap
     ethr =  3.73E-10,  avg # of iterations =  2.3

     total cpu time spent up to now is       19.8 secs

     total energy              =    -264.80675605 Ry
     Harris-Foulkes estimate   =    -264.80675606 Ry
     estimated scf accuracy    <       0.00000003 Ry

     iteration #  7     ecut=   100.00 Ry     beta=0.60
     Davidson diagonalization with overlap
     ethr =  6.82E-11,  avg # of iterations =  3.7

     total cpu time spent up to now is       20.0 secs

     total energy              =    -264.80675605 Ry
     Harris-Foulkes estimate   =    -264.80675605 Ry
     estimated scf accuracy    <          7.3E-10 Ry

     iteration #  8     ecut=   100.00 Ry     beta=0.60
     Davidson diagonalization with overlap
     ethr =  1.84E-12,  avg # of iterations =  5.2

     total cpu time spent up to now is       20.4 secs

     total energy              =    -264.80675605 Ry
     Harris-Foulkes estimate   =    -264.80675605 Ry
     estimated scf accuracy    <          8.9E-10 Ry

     iteration #  9     ecut=   100.00 Ry     beta=0.60
     Davidson diagonalization with overlap
     ethr =  1.84E-12,  avg # of iterations =  2.9

     total cpu time spent up to now is       20.7 secs

     total energy              =    -264.80675605 Ry
     Harris-Foulkes estimate   =    -264.80675605 Ry
     estimated scf accuracy    <          2.6E-11 Ry

     iteration # 10     ecut=   100.00 Ry     beta=0.60
     Davidson diagonalization with overlap
     ethr =  1.00E-13,  avg # of iterations =  4.0

     total cpu time spent up to now is       20.9 secs

          k = 0.0829 0.0829 0.0829     band energies (ev):

   -44.9694 -21.5583 -21.5578 -21.5578 -13.9445  -5.9337  -5.2229  -5.2229
     1.0120   1.0120   1.1621   8.1618   8.3801   8.3801   9.1521   9.1521
     9.5847  10.1606  10.4858  10.4858  12.8209  12.8782  12.8782  15.4295

          k = 0.0829 0.0829 0.2488     band energies (ev):

   -44.9688 -21.5883 -21.5568 -21.5565 -13.8807  -6.0114  -5.1993  -5.1188
     1.0646   1.0823   1.3785   7.4293   8.0929   8.1788   8.6839   8.7012
     9.4553   9.4871  10.1806  10.1817  12.9150  13.6532  13.6626  15.4356

          k = 0.0829 0.0829 0.4147     band energies (ev):

   -44.9682 -21.6182 -21.5554 -21.5552 -13.8150  -6.1752  -5.1754  -4.9002
     1.1182   1.2508   1.4880   6.6804   7.8419   7.9174   8.1234   8.4640
     9.2327   9.3844   9.8186   9.9295  12.9771  14.3913  14.3994  15.4330

          k = 0.0829 0.2488 0.2488     band energies (ev):

   -44.9682 -21.5872 -21.5858 -21.5554 -13.8274  -5.9122  -5.1806  -5.1141
     0.9838   1.0844   1.4898   7.0920   7.6488   7.8417   8.2351   8.4534
     9.0433   9.7423   9.8015  10.2684  13.6376  13.7740  14.0061  15.9490

          k = 0.0829 0.2488 0.4147     band energies (ev):

   -44.9675 -21.6160 -21.5847 -21.5541 -13.7727  -5.9238  -5.1331  -5.0072
     0.9858   1.1731   1.4175   6.5918   7.2050   7.4866   7.9342   8.3019
     9.1529   9.5012   9.6997  10.2453  13.7502  14.4259  14.5437  16.0471

          k = 0.0829 0.4147 0.4147     band energies (ev):

   -44.9669 -21.6140 -21.6137 -21.5529 -13.7295  -5.6526  -5.1338  -5.0791
     0.9525   1.0011   1.3837   6.4184   6.7251   6.8384   7.9473   7.9726
     8.9247   9.7519   9.9196  10.5998  14.4370  14.4710  14.8553  16.2387

          k = 0.2488 0.2488 0.2488     band energies (ev):

   -44.9676 -21.5860 -21.5844 -21.5844 -13.7807  -5.7403  -5.1233  -5.1233
     0.8140   0.8140   1.5563   6.8610   7.5975   7.5975   8.1304   8.3044
     8.3044  10.0307  10.0307  10.0842  14.1247  14.1266  14.1266  17.1981

          k = 0.2488 0.2488 0.4147     band energies (ev):

   -44.9669 -21.6142 -21.5837 -21.5830 -13.7328  -5.6623  -5.0637  -5.0263
     0.6431   0.8411   1.2975   6.5657   7.2165   7.5655   7.6181   8.2848
     8.4749   9.8116  10.1431  10.1877  14.2351  14.6281  14.6691  17.1637

          k = 0.2488 0.4147 0.4147     band energies (ev):

   -44.9663 -21.6124 -21.6121 -21.5819 -13.6921  -5.3768  -5.0424  -5.0090
     0.5295   0.5806   0.9232   6.4305   6.8408   7.4144   7.6645   8.2272
     8.3214  10.0740  10.1907  10.5940  14.7484  14.7614  14.9787  17.5051

          k = 0.4147 0.4147 0.4147     band energies (ev):

   -44.9657 -21.6108 -21.6106 -21.6106 -13.6542  -5.0734  -4.9438  -4.9438
     0.2315   0.2315   0.4162   6.2996   6.8466   6.8466   8.0942   8.3695
     8.3695  10.5342  10.5342  10.6395  15.1081  15.1081  15.1122  18.0829

     highest occupied, lowest unoccupied level (ev):    10.6395   12.8209

!    total energy              =    -264.80675605 Ry
     Harris-Foulkes estimate   =    -264.80675605 Ry
     estimated scf accuracy    <          1.8E-12 Ry

     The total energy is the sum of the following terms:

     one-electron contribution =     -69.59305203 Ry
     hartree contribution      =      58.45626711 Ry
     xc contribution           =     -42.75043718 Ry
     ewald contribution        =    -210.91954476 Ry
     scf correction            =       0.00001081 Ry

     iteration # 11     ecut=   100.00 Ry     beta=0.60
     Davidson diagonalization with overlap
     ethr =  1.00E-13,  avg # of iterations =  1.0

     total cpu time spent up to now is       21.1 secs

     total energy              =    -264.80675605 Ry
     Harris-Foulkes estimate   =    -264.80675605 Ry
     estimated scf accuracy    <          1.2E-12 Ry

     iteration # 12     ecut=   100.00 Ry     beta=0.60
     Davidson diagonalization with overlap
     ethr =  1.00E-13,  avg # of iterations =  1.0

     total cpu time spent up to now is       21.3 secs

     total energy              =    -264.80675605 Ry
     Harris-Foulkes estimate   =    -264.80675605 Ry
     estimated scf accuracy    <          1.6E-13 Ry

     iteration # 13     ecut=   100.00 Ry     beta=0.60
     Davidson diagonalization with overlap
     ethr =  1.00E-13,  avg # of iterations =  1.0

     total cpu time spent up to now is       21.6 secs

     total energy              =    -264.80675605 Ry
     Harris-Foulkes estimate   =    -264.80675605 Ry
     estimated scf accuracy    <          5.7E-14 Ry

     iteration # 14     ecut=   100.00 Ry     beta=0.60
     Davidson diagonalization with overlap
     ethr =  1.00E-13,  avg # of iterations =  1.0

     total cpu time spent up to now is       21.8 secs

     End of self-consistent calculation

          k = 0.0829 0.0829 0.0829 (  6850 PWs)   bands (ev):

   -44.9694 -21.5583 -21.5578 -21.5578 -13.9446  -5.9337  -5.2229  -5.2229
     1.0120   1.0120   1.1621   8.1618   8.3801   8.3801   9.1521   9.1521
     9.5847  10.1606  10.4858  10.4858  12.8209  12.8782  12.8782  15.4295

          k = 0.0829 0.0829 0.2488 (  6839 PWs)   bands (ev):

   -44.9688 -21.5883 -21.5568 -21.5565 -13.8807  -6.0114  -5.1993  -5.1188
     1.0646   1.0823   1.3785   7.4293   8.0929   8.1788   8.6839   8.7012
     9.4553   9.4871  10.1806  10.1817  12.9150  13.6532  13.6626  15.4357

          k = 0.0829 0.0829 0.4147 (  6839 PWs)   bands (ev):

   -44.9682 -21.6182 -21.5554 -21.5552 -13.8150  -6.1751  -5.1754  -4.9002
     1.1182   1.2508   1.4880   6.6804   7.8419   7.9174   8.1234   8.4640
     9.2327   9.3844   9.8186   9.9295  12.9771  14.3913  14.3994  15.4330

          k = 0.0829 0.2488 0.2488 (  6847 PWs)   bands (ev):

   -44.9682 -21.5872 -21.5858 -21.5554 -13.8274  -5.9122  -5.1806  -5.1141
     0.9838   1.0844   1.4898   7.0920   7.6488   7.8417   8.2351   8.4534
     9.0433   9.7423   9.8015  10.2684  13.6376  13.7740  14.0061  15.9491

          k = 0.0829 0.2488 0.4147 (  6833 PWs)   bands (ev):

   -44.9675 -21.6160 -21.5847 -21.5541 -13.7727  -5.9238  -5.1331  -5.0071
     0.9858   1.1731   1.4175   6.5918   7.2050   7.4866   7.9342   8.3019
     9.1529   9.5012   9.6997  10.2453  13.7502  14.4259  14.5438  16.0471

          k = 0.0829 0.4147 0.4147 (  6854 PWs)   bands (ev):

   -44.9669 -21.6140 -21.6137 -21.5529 -13.7295  -5.6526  -5.1338  -5.0791
     0.9525   1.0011   1.3836   6.4184   6.7251   6.8384   7.9473   7.9726
     8.9247   9.7519   9.9196  10.5998  14.4370  14.4710  14.8553  16.2387

          k = 0.2488 0.2488 0.2488 (  6881 PWs)   bands (ev):

   -44.9675 -21.5860 -21.5844 -21.5844 -13.7807  -5.7403  -5.1233  -5.1233
     0.8140   0.8140   1.5563   6.8610   7.5975   7.5975   8.1304   8.3044
     8.3044  10.0307  10.0307  10.0842  14.1248  14.1266  14.1266  17.1981

          k = 0.2488 0.2488 0.4147 (  6839 PWs)   bands (ev):

   -44.9669 -21.6141 -21.5837 -21.5830 -13.7328  -5.6623  -5.0637  -5.0263
     0.6431   0.8410   1.2975   6.5657   7.2165   7.5655   7.6181   8.2848
     8.4749   9.8116  10.1431  10.1877  14.2351  14.6281  14.6691  17.1637

          k = 0.2488 0.4147 0.4147 (  6851 PWs)   bands (ev):

   -44.9663 -21.6124 -21.6121 -21.5819 -13.6922  -5.3768  -5.0424  -5.0090
     0.5295   0.5806   0.9232   6.4305   6.8408   7.4144   7.6645   8.2272
     8.3214  10.0740  10.1907  10.5940  14.7484  14.7614  14.9787  17.5051

          k = 0.4147 0.4147 0.4147 (  6854 PWs)   bands (ev):

   -44.9657 -21.6108 -21.6105 -21.6105 -13.6542  -5.0734  -4.9438  -4.9438
     0.2315   0.2315   0.4162   6.2996   6.8466   6.8466   8.0943   8.3695
     8.3695  10.5342  10.5342  10.6395  15.1081  15.1081  15.1122  18.0828

     highest occupied, lowest unoccupied level (ev):    10.6395   12.8209

!    total energy              =    -264.80675605 Ry
     Harris-Foulkes estimate   =    -264.80675605 Ry
     estimated scf accuracy    <          2.1E-15 Ry

     The total energy is the sum of the following terms:

     one-electron contribution =     -69.59304447 Ry
     hartree contribution      =      58.45627099 Ry
     xc contribution           =     -42.75043781 Ry
     ewald contribution        =    -210.91954476 Ry

     convergence has been achieved in  14 iterations

     Forces acting on atoms (cartesian axes, Ry/au):

     atom    1 type  3   force =     0.00000000    0.00000000    0.00000000
     atom    2 type  2   force =     0.00000000    0.00000000    0.00000000
     atom    3 type  1   force =     0.00000000    0.00000000    0.00000000
     atom    4 type  1   force =     0.00000000   -0.00000000    0.00000000
     atom    5 type  1   force =     0.00000000    0.00000000    0.00000000

     Total force =     0.000000     Total SCF correction =     0.000000


     Computing stress (Cartesian axis) and pressure

          total   stress  (Ry/bohr**3)                   (kbar)     P=   -0.02
  -0.00000015   0.00000000   0.00000000         -0.02      0.00      0.00
   0.00000000  -0.00000015   0.00000000          0.00     -0.02      0.00
   0.00000000   0.00000000  -0.00000015          0.00      0.00     -0.02


     bfgs converged in   3 scf cycles and   2 bfgs steps
     (criteria: energy <  1.0E-04 Ry, force <  1.0E-03Ry/Bohr, cell <  5.0E-01kbar)

     End of BFGS Geometry Optimization

     Final enthalpy =    -264.8067560540 Ry
Begin final coordinates
     new unit-cell volume =    410.98664 a.u.^3 (    60.90194 Ang^3 )
     density =      6.35784 g/cm^3

CELL_PARAMETERS (alat=  7.40000000)
   1.004717997   0.000000000   0.000000000
   0.000000000   1.004717997   0.000000000
   0.000000000   0.000000000   1.004717997

ATOMIC_POSITIONS (crystal)
Ba       0.000000000  -0.000000000   0.000000000
Ti       0.500000000   0.500000000   0.500000000
O        0.000000000   0.500000000   0.500000000
O        0.500000000  -0.000000000   0.500000000
O        0.500000000   0.500000000  -0.000000000
End final coordinates



     A final scf calculation at the relaxed structure.
     The G-vectors are recalculated for the final unit cell
     Results may differ from those at the preceding step.
 
     Parallelization info
     --------------------
     sticks:   dense  smooth     PW     G-vecs:    dense   smooth      PW
     Min         125      62     17                 5599     1980     293
     Max         126      63     18                 5604     1985     298
     Sum        3521    1757    497               156843    55515    8289
 

     Title: 
     cubic BaTiO3 at 7.40 lattice parameter. xc=PZ                              


     bravais-lattice index     =            1
     lattice parameter (alat)  =       7.4000  a.u.
     unit-cell volume          =     410.9866 (a.u.)^3
     number of atoms/cell      =            5
     number of atomic types    =            3
     number of electrons       =        40.00
     number of Kohn-Sham states=           24
     kinetic-energy cutoff     =     100.0000  Ry
     charge density cutoff     =     800.0000  Ry
     convergence threshold     =      1.0E-14
     mixing beta               =       0.6000
     number of iterations used =            8  plain     mixing
     Exchange-correlation      = SLA-PZ-NOGX-NOGC ( 1  1  0  0 0 0)

     celldm(1)=   7.400000  celldm(2)=   0.000000  celldm(3)=   0.000000
     celldm(4)=   0.000000  celldm(5)=   0.000000  celldm(6)=   0.000000

     crystal axes: (cart. coord. in units of alat)
               a(1) = (   1.004718   0.000000   0.000000 )  
               a(2) = (   0.000000   1.004718   0.000000 )  
               a(3) = (   0.000000   0.000000   1.004718 )  

     reciprocal axes: (cart. coord. in units 2 pi/alat)
               b(1) = (  0.995304  0.000000  0.000000 )  
               b(2) = (  0.000000  0.995304  0.000000 )  
               b(3) = (  0.000000  0.000000  0.995304 )  


     PseudoPot. # 1 for O  read from file:
     ../../PSP_DIR/O.pz-van_ak.UPF
     MD5 check sum: d814fcb982dd9af4fc6452aae6bb9318
     Pseudo is Ultrasoft, Zval =  6.0
     Generated by new atomic code, or converted to UPF format
     Using radial grid of  737 points,  4 beta functions with: 
                l(1) =   0
                l(2) =   0
                l(3) =   1
                l(4) =   1
     Q(r) pseudized with  8 coefficients,  rinner =    0.800   0.800   0.800


     PseudoPot. # 2 for Ti read from file:
     ../../PSP_DIR/Ti.pz-sp-van_ak.UPF
     MD5 check sum: 545d0e6e05332b8871a8093f427cb0ca
     Pseudo is Ultrasoft, Zval = 12.0
     Generated by new atomic code, or converted to UPF format
     Using radial grid of  851 points,  6 beta functions with: 
                l(1) =   0
                l(2) =   0
                l(3) =   1
                l(4) =   1
                l(5) =   2
                l(6) =   2
     Q(r) pseudized with  8 coefficients,  rinner =    1.000   1.000   1.000
                                                       1.000   1.000

     PseudoPot. # 3 for Ba read from file:
     ../../PSP_DIR/Ba.pz-sp-hgh.UPF
     MD5 check sum: 155c4e4bbe33bd45901c985a874b3acf
     Pseudo is Norm-conserving, Zval = 10.0
     Generated in analytical, separable form
     Using radial grid of 1251 points,  6 beta functions with: 
                l(1) =   0
                l(2) =   0
                l(3) =   1
                l(4) =   1
                l(5) =   2
                l(6) =   3

     atomic species   valence    mass     pseudopotential
        O              6.00    15.99000     O ( 1.00)
        Ti            12.00    47.88000     Ti( 1.00)
        Ba            10.00   137.33000     Ba( 1.00)

     48 Sym. Ops., with inversion, found



   Cartesian axes

     site n.     atom                  positions (alat units)
         1           Ba  tau(   1) = (   0.0000000  -0.0000000   0.0000000  )
         2           Ti  tau(   2) = (   0.5023590   0.5023590   0.5023590  )
         3           O   tau(   3) = (   0.0000000   0.5023590   0.5023590  )
         4           O   tau(   4) = (   0.5023590  -0.0000000   0.5023590  )
         5           O   tau(   5) = (   0.5023590   0.5023590  -0.0000000  )

     number of k points=    10
                       cart. coord. in units 2pi/alat
        k(    1) = (   0.0829420   0.0829420   0.0829420), wk =   0.0740741
        k(    2) = (   0.0829420   0.0829420   0.2488260), wk =   0.2222222
        k(    3) = (   0.0829420   0.0829420   0.4147101), wk =   0.2222222
        k(    4) = (   0.0829420   0.2488260   0.2488260), wk =   0.2222222
        k(    5) = (   0.0829420   0.2488260   0.4147101), wk =   0.4444444
        k(    6) = (   0.0829420   0.4147101   0.4147101), wk =   0.2222222
        k(    7) = (   0.2488260   0.2488260   0.2488260), wk =   0.0740741
        k(    8) = (   0.2488260   0.2488260   0.4147101), wk =   0.2222222
        k(    9) = (   0.2488260   0.4147101   0.4147101), wk =   0.2222222
        k(   10) = (   0.4147101   0.4147101   0.4147101), wk =   0.0740741

     Dense  grid:   156843 G-vectors     FFT dimensions: (  72,  72,  72)

     Smooth grid:    55515 G-vectors     FFT dimensions: (  48,  48,  48)

     Estimated max dynamical RAM per process >       5.71MB

     Estimated total allocated dynamical RAM >     159.92MB

     Initial potential from superposition of free atoms

     starting charge   28.99996, renormalised to   40.00000
     Starting wfc are   22 randomized atomic wfcs +    2 random wfc

     Writing output data file bto.save

     total cpu time spent up to now is       22.7 secs

     per-process dynamical memory:    74.5 Mb

     Self-consistent Calculation

     iteration #  1     ecut=   100.00 Ry     beta=0.60
     Davidson diagonalization with overlap
     c_bands:  1 eigenvalues not converged
     c_bands:  2 eigenvalues not converged
     c_bands:  2 eigenvalues not converged
     c_bands:  2 eigenvalues not converged
     c_bands:  1 eigenvalues not converged
     c_bands:  1 eigenvalues not converged
     ethr =  1.00E-06,  avg # of iterations = 19.6

     total cpu time spent up to now is       23.9 secs

     total energy              =      59.70425398 Ry
     Harris-Foulkes estimate   =    -389.49675889 Ry
     estimated scf accuracy    <     592.62040059 Ry

     iteration #  2     ecut=   100.00 Ry     beta=0.60
     Davidson diagonalization with overlap
     ethr =  1.00E-02,  avg # of iterations =  8.4

     total cpu time spent up to now is       24.5 secs

     total energy              =    -286.89003785 Ry
     Harris-Foulkes estimate   =    -458.93423411 Ry
     estimated scf accuracy    <     318.06706187 Ry

     iteration #  3     ecut=   100.00 Ry     beta=0.60
     Davidson diagonalization with overlap
     ethr =  1.00E-02,  avg # of iterations =  3.7

     total cpu time spent up to now is       24.8 secs

     total energy              =    -277.54322624 Ry
     Harris-Foulkes estimate   =    -303.29179575 Ry
     estimated scf accuracy    <      86.19410245 Ry

     iteration #  4     ecut=   100.00 Ry     beta=0.60
     Davidson diagonalization with overlap
     ethr =  1.00E-02,  avg # of iterations =  4.6

     total cpu time spent up to now is       25.1 secs

     total energy              =    -272.76040209 Ry
     Harris-Foulkes estimate   =    -279.30882048 Ry
     estimated scf accuracy    <      40.38902565 Ry

     iteration #  5     ecut=   100.00 Ry     beta=0.60
     Davidson diagonalization with overlap
     ethr =  1.00E-02,  avg # of iterations =  3.0

     total cpu time spent up to now is       25.3 secs

     total energy              =    -273.25543233 Ry
     Harris-Foulkes estimate   =    -273.16743413 Ry
     estimated scf accuracy    <      21.94339061 Ry

     iteration #  6     ecut=   100.00 Ry     beta=0.60
     Davidson diagonalization with overlap
     ethr =  1.00E-02,  avg # of iterations =  1.1

     total cpu time spent up to now is       25.5 secs

     total energy              =    -272.33122898 Ry
     Harris-Foulkes estimate   =    -273.28313566 Ry
     estimated scf accuracy    <      23.49469338 Ry

     iteration #  7     ecut=   100.00 Ry     beta=0.60
     Davidson diagonalization with overlap
     ethr =  1.00E-02,  avg # of iterations =  1.0

     total cpu time spent up to now is       25.7 secs

     total energy              =    -267.70842382 Ry
     Harris-Foulkes estimate   =    -272.34428689 Ry
     estimated scf accuracy    <      21.09200350 Ry

     iteration #  8     ecut=   100.00 Ry     beta=0.60
     Davidson diagonalization with overlap
     ethr =  1.00E-02,  avg # of iterations =  2.8

     total cpu time spent up to now is       25.9 secs

     total energy              =    -264.87794096 Ry
     Harris-Foulkes estimate   =    -268.24708998 Ry
     estimated scf accuracy    <       7.94686160 Ry

     iteration #  9     ecut=   100.00 Ry     beta=0.60
     Davidson diagonalization with overlap
     ethr =  1.00E-02,  avg # of iterations =  2.4

     negative rho (up, down):  2.053E-07 0.000E+00

     total cpu time spent up to now is       26.2 secs

     total energy              =    -265.84543794 Ry
     Harris-Foulkes estimate   =    -265.62011489 Ry
     estimated scf accuracy    <       2.26226341 Ry

     iteration # 10     ecut=   100.00 Ry     beta=0.60
     Davidson diagonalization with overlap
     ethr =  5.66E-03,  avg # of iterations =  1.5

     negative rho (up, down):  9.513E-04 0.000E+00

     total cpu time spent up to now is       26.4 secs

          k = 0.0829 0.0829 0.0829     band energies (ev):

   -39.3939 -16.6927 -16.6901 -16.6901 -10.9883  -6.9990  -6.8999  -6.8989
     2.5728   2.5818   2.7902   7.4686   7.5758   7.5779   7.7553   7.7598
     7.9370   8.7973   9.1751   9.1815  15.3846  15.4057  15.5261  16.1447

          k = 0.0829 0.0829 0.2488     band energies (ev):

   -39.3924 -16.7949 -16.6883 -16.6869 -10.7852  -7.2790  -6.8819  -6.5789
     2.6592   2.6785   3.1080   6.6836   7.0845   7.2929   7.5462   7.6780
     7.9482   8.1248   8.8791   8.9609  15.6403  16.3112  16.3665  19.1410

          k = 0.0829 0.0829 0.4147     band energies (ev):

   -39.3910 -16.8940 -16.6846 -16.6839 -10.5530  -7.6155  -6.8639  -6.2083
     2.7920   2.9667   3.2219   5.9779   6.7713   6.8422   7.0813   7.4120
     8.0923   8.1460   8.5066   8.5362  15.8233  17.2780  17.3436  19.2005

          k = 0.0829 0.2488 0.2488     band energies (ev):

   -39.3910 -16.7935 -16.7858 -16.6842 -10.6290  -7.2407  -6.6916  -6.6549
     2.4666   2.6862   3.3429   6.1926   6.8467   6.9511   7.3044   7.5288
     7.7019   8.1545   8.5748   9.0681  16.3196  16.4429  16.7880  19.5456

          k = 0.0829 0.2488 0.4147     band energies (ev):

   -39.3895 -16.8870 -16.7840 -16.6813 -10.4565  -7.3803  -6.7113  -6.3375
     2.4788   2.7037   3.2986   5.7829   6.2923   6.7288   6.9120   7.5481
     7.9682   8.1873   8.2862   8.8906  16.5030  17.2788  17.6343  19.5999

          k = 0.0829 0.4147 0.4147     band energies (ev):

   -39.3881 -16.8806 -16.8787 -16.6782 -10.3530  -7.2255  -6.4782  -6.4577
     2.3331   2.4114   3.3119   5.5541   5.9469   6.2735   6.9348   7.0280
     7.8281   8.6052   8.6574   9.0236  17.2087  17.2858  18.1826  19.5407

          k = 0.2488 0.2488 0.2488     band energies (ev):

   -39.3896 -16.7906 -16.7822 -16.7820 -10.5053  -7.0174  -6.6585  -6.6580
     2.2177   2.2188   3.4752   5.8940   6.8107   6.8180   7.0449   7.5428
     7.5464   8.3857   8.8149   8.8151  16.7945  16.8264  17.0824  20.5183

          k = 0.2488 0.2488 0.4147     band energies (ev):

   -39.3882 -16.8810 -16.7822 -16.7784 -10.3721  -7.0651  -6.6248  -6.3838
     1.9831   2.1731   2.9851   5.7235   6.4736   6.7897   6.8440   7.8026
     7.8803   8.3483   8.5584   8.7454  16.9846  17.5995  17.6285  20.3638

          k = 0.2488 0.4147 0.4147     band energies (ev):

   -39.3868 -16.8758 -16.8742 -16.7767 -10.2831  -6.8483  -6.4286  -6.4286
     1.7747   1.8074   2.3552   5.5127   6.2579   6.8184   7.1010   7.7037
     8.0283   8.5641   8.7223   8.9318  17.6010  17.6328  18.1306  18.6357

          k = 0.4147 0.4147 0.4147     band energies (ev):

   -39.3853 -16.8714 -16.8704 -16.8701 -10.2103  -6.4725  -6.3773  -6.3772
     1.3751   1.3752   1.6048   5.3018   6.2680   6.2810   8.0052   8.3221
     8.3223   8.8293   8.8296   8.8781  17.9397  18.0993  18.2506  18.7433

     highest occupied, lowest unoccupied level (ev):     9.1815   15.3846

!    total energy              =    -264.91942522 Ry
     Harris-Foulkes estimate   =    -265.87188249 Ry
     estimated scf accuracy    <       2.82415301 Ry

     The total energy is the sum of the following terms:

     one-electron contribution =     -67.69515283 Ry
     hartree contribution      =      49.71025393 Ry
     xc contribution           =     -42.52476263 Ry
     ewald contribution        =    -210.91954476 Ry
     scf correction            =       6.50978106 Ry

     iteration # 11     ecut=   100.00 Ry     beta=0.60
     Davidson diagonalization with overlap
     ethr =  5.66E-03,  avg # of iterations =  4.0

     negative rho (up, down):  7.230E-04 0.000E+00

     total cpu time spent up to now is       26.7 secs

     total energy              =    -270.04368519 Ry
     Harris-Foulkes estimate   =    -271.24896986 Ry
     estimated scf accuracy    <      53.64416848 Ry

     iteration # 12     ecut=   100.00 Ry     beta=0.60
     Davidson diagonalization with overlap
     ethr =  5.66E-03,  avg # of iterations =  1.0

     negative rho (up, down):  1.091E-03 0.000E+00

     total cpu time spent up to now is       26.9 secs

     total energy              =    -269.00849322 Ry
     Harris-Foulkes estimate   =    -270.07432180 Ry
     estimated scf accuracy    <      47.75750799 Ry

     iteration # 13     ecut=   100.00 Ry     beta=0.60
     Davidson diagonalization with overlap
     ethr =  5.66E-03,  avg # of iterations =  1.0

     negative rho (up, down):  1.788E-03 0.000E+00

     total cpu time spent up to now is       27.1 secs

     total energy              =    -268.57034984 Ry
     Harris-Foulkes estimate   =    -269.05070766 Ry
     estimated scf accuracy    <      41.90925727 Ry

     iteration # 14     ecut=   100.00 Ry     beta=0.60
     Davidson diagonalization with overlap
     ethr =  5.66E-03,  avg # of iterations =  1.0

     negative rho (up, down):  4.029E-04 0.000E+00

     total cpu time spent up to now is       27.3 secs

     total energy              =    -265.35847805 Ry
     Harris-Foulkes estimate   =    -268.58224899 Ry
     estimated scf accuracy    <      39.36223696 Ry

     iteration # 15     ecut=   100.00 Ry     beta=0.60
     Davidson diagonalization with overlap
     ethr =  5.66E-03,  avg # of iterations =  2.7

     negative rho (up, down):  1.935E-04 0.000E+00

     total cpu time spent up to now is       27.5 secs

     total energy              =    -265.92017571 Ry
     Harris-Foulkes estimate   =    -265.97630918 Ry
     estimated scf accuracy    <      11.65182112 Ry

     iteration # 16     ecut=   100.00 Ry     beta=0.60
     Davidson diagonalization with overlap
     ethr =  5.66E-03,  avg # of iterations =  1.4

     total cpu time spent up to now is       27.7 secs

     total energy              =    -267.20567539 Ry
     Harris-Foulkes estimate   =    -265.93952886 Ry
     estimated scf accuracy    <      10.81326098 Ry

     iteration # 17     ecut=   100.00 Ry     beta=0.60
     Davidson diagonalization with overlap
     ethr =  5.66E-03,  avg # of iterations =  1.6

     total cpu time spent up to now is       27.9 secs

     total energy              =    -262.98309263 Ry
     Harris-Foulkes estimate   =    -267.79851091 Ry
     estimated scf accuracy    <      31.88091152 Ry

     iteration # 18     ecut=   100.00 Ry     beta=0.60
     Davidson diagonalization with overlap
     ethr =  5.66E-03,  avg # of iterations =  2.9

     negative rho (up, down):  7.283E-08 0.000E+00

     total cpu time spent up to now is       28.2 secs

     total energy              =    -265.06298662 Ry
     Harris-Foulkes estimate   =    -265.07302164 Ry
     estimated scf accuracy    <       1.10858501 Ry

     iteration # 19     ecut=   100.00 Ry     beta=0.60
     Davidson diagonalization with overlap
     ethr =  2.77E-03,  avg # of iterations =  1.0

     negative rho (up, down):  2.171E-07 0.000E+00

     total cpu time spent up to now is       28.4 secs

     total energy              =    -265.08242187 Ry
     Harris-Foulkes estimate   =    -265.07538979 Ry
     estimated scf accuracy    <       1.05746469 Ry

     iteration # 20     ecut=   100.00 Ry     beta=0.60
     Davidson diagonalization with overlap
     ethr =  2.64E-03,  avg # of iterations =  1.0

     negative rho (up, down):  2.743E-07 0.000E+00

     total cpu time spent up to now is       28.6 secs

          k = 0.0829 0.0829 0.0829     band energies (ev):

   -48.8110 -25.2253 -25.2252 -25.2251 -10.8111  -7.0124  -6.7972  -6.7972
     3.2580   3.2581   3.4585   7.1509   7.1579   7.1580   7.8303   7.8327
     8.2651   8.7829   9.2922   9.2930  10.0855  10.1251  10.1333  12.1315

          k = 0.0829 0.0829 0.2488     band energies (ev):

   -48.8105 -25.2457 -25.2243 -25.2243 -10.6442  -7.2223  -6.7815  -6.6103
     3.3484   3.3650   3.7672   5.9233   6.8326   6.8925   7.4357   7.6052
     8.0941   8.1698   8.8483   9.0110  10.1292  10.8948  10.9216  12.1289

[...]
     3.1979   3.4125   4.0827   4.7601   5.6606   6.0274   6.6189   7.2762
     7.7009   8.3235   8.5553   9.1034  10.9376  11.5595  11.7026  12.8352

          k = 0.0829 0.4147 0.4147     band energies (ev):

   -48.8091 -25.2638 -25.2637 -25.2217 -10.2463  -7.1417  -6.6039  -6.5732
     3.1114   3.1744   4.0570   4.6633   4.7597   5.7003   6.6656   6.7493
     7.2517   8.8765   8.9758   9.3025  11.5581  11.5812  11.9677  13.0660

          k = 0.2488 0.2488 0.2488     band energies (ev):

   -48.8096 -25.2440 -25.2435 -25.2435 -10.3935  -7.0477  -6.6743  -6.6737
     2.9126   2.9135   4.2954   5.4830   5.6797   5.7113   6.6337   7.3993
     7.3994   8.7130   8.8850   8.8995  11.2787  11.4024  11.4051  14.0869

          k = 0.2488 0.2488 0.4147     band energies (ev):

   -48.8091 -25.2638 -25.2429 -25.2425 -10.2707  -7.0783  -6.6437  -6.5150
     2.6610   2.8808   3.7469   4.7288   5.6154   5.7510   6.3230   7.5440
     7.7158   8.5168   8.8127   8.9847  11.4556  11.7879  11.8419  14.0646

          k = 0.2488 0.4147 0.4147     band energies (ev):

   -48.8087 -25.2628 -25.2627 -25.2417 -10.1841  -6.8785  -6.5586  -6.5480
     2.4588   2.5136   3.0361   4.6903   4.7454   5.7542   6.7995   7.4308
     7.6830   8.8447   8.9973   9.1966  11.9158  11.9352  12.1088  14.5192

          k = 0.4147 0.4147 0.4147     band energies (ev):

   -48.8082 -25.2618 -25.2617 -25.2617 -10.1195  -6.6053  -6.5120  -6.5119
     2.0523   2.0523   2.2780   4.7166   4.7179   4.7442   7.5885   7.8934
     7.8934   9.1360   9.1361   9.2037  12.2548  12.2701  12.2707  15.7030

     highest occupied, lowest unoccupied level (ev):     9.3025   10.0855

!    total energy              =    -265.21186264 Ry
     Harris-Foulkes estimate   =    -265.08614239 Ry
     estimated scf accuracy    <       1.04066526 Ry

     The total energy is the sum of the following terms:

     one-electron contribution =     -76.01855661 Ry
     hartree contribution      =      54.73673937 Ry
     xc contribution           =     -42.46122141 Ry
     ewald contribution        =    -210.91954476 Ry
     scf correction            =       9.45072078 Ry

     iteration # 21     ecut=   100.00 Ry     beta=0.60
     Davidson diagonalization with overlap
     ethr =  2.60E-03,  avg # of iterations =  1.0

     negative rho (up, down):  1.052E-07 0.000E+00

     total cpu time spent up to now is       28.8 secs

     total energy              =    -264.69089022 Ry
     Harris-Foulkes estimate   =    -265.25353378 Ry
     estimated scf accuracy    <       2.78958150 Ry

     iteration # 22     ecut=   100.00 Ry     beta=0.60
     Davidson diagonalization with overlap
     ethr =  2.60E-03,  avg # of iterations =  1.9

     negative rho (up, down):  1.240E-07 0.000E+00

     total cpu time spent up to now is       29.0 secs

     total energy              =    -264.88703059 Ry
     Harris-Foulkes estimate   =    -264.92497216 Ry
     estimated scf accuracy    <       0.32713876 Ry

     iteration # 23     ecut=   100.00 Ry     beta=0.60
     Davidson diagonalization with overlap
     ethr =  8.18E-04,  avg # of iterations =  1.5

     negative rho (up, down):  7.679E-08 0.000E+00

     total cpu time spent up to now is       29.2 secs

     total energy              =    -264.86543135 Ry
     Harris-Foulkes estimate   =    -264.89521126 Ry
     estimated scf accuracy    <       0.25640493 Ry

     iteration # 24     ecut=   100.00 Ry     beta=0.60
     Davidson diagonalization with overlap
     ethr =  6.41E-04,  avg # of iterations =  1.0

     negative rho (up, down):  1.185E-07 0.000E+00

     total cpu time spent up to now is       29.4 secs

     total energy              =    -264.88081283 Ry
     Harris-Foulkes estimate   =    -264.86961026 Ry
     estimated scf accuracy    <       0.18433779 Ry

     iteration # 25     ecut=   100.00 Ry     beta=0.60
     Davidson diagonalization with overlap
     ethr =  4.61E-04,  avg # of iterations =  1.0

     negative rho (up, down):  1.318E-07 0.000E+00

     total cpu time spent up to now is       29.6 secs

     total energy              =    -264.88428628 Ry
     Harris-Foulkes estimate   =    -264.88198492 Ry
     estimated scf accuracy    <       0.20706765 Ry

     iteration # 26     ecut=   100.00 Ry     beta=0.60
     Davidson diagonalization with overlap
     ethr =  4.61E-04,  avg # of iterations =  1.0

     negative rho (up, down):  1.448E-07 0.000E+00

     total cpu time spent up to now is       29.7 secs

     total energy              =    -264.90743228 Ry
     Harris-Foulkes estimate   =    -264.88474437 Ry
     estimated scf accuracy    <       0.21480601 Ry

     iteration # 27     ecut=   100.00 Ry     beta=0.60
     Davidson diagonalization with overlap
     ethr =  4.61E-04,  avg # of iterations =  1.0

     negative rho (up, down):  1.088E-07 0.000E+00

     total cpu time spent up to now is       29.9 secs

     total energy              =    -264.90531968 Ry
     Harris-Foulkes estimate   =    -264.90956786 Ry
     estimated scf accuracy    <       0.28837851 Ry

     iteration # 28     ecut=   100.00 Ry     beta=0.60
     Davidson diagonalization with overlap
     ethr =  4.61E-04,  avg # of iterations =  1.0

     total cpu time spent up to now is       30.1 secs

     total energy              =    -264.78146066 Ry
     Harris-Foulkes estimate   =    -264.90789223 Ry
     estimated scf accuracy    <       0.28834143 Ry

     iteration # 29     ecut=   100.00 Ry     beta=0.60
     Davidson diagonalization with overlap
     ethr =  4.61E-04,  avg # of iterations =  2.7

     total cpu time spent up to now is       30.4 secs

     total energy              =    -264.79893594 Ry
     Harris-Foulkes estimate   =    -264.81377183 Ry
     estimated scf accuracy    <       0.03559011 Ry

     iteration # 30     ecut=   100.00 Ry     beta=0.60
     Davidson diagonalization with overlap
     ethr =  8.90E-05,  avg # of iterations =  3.9

     total cpu time spent up to now is       30.7 secs

          k = 0.0829 0.0829 0.0829     band energies (ev):

   -45.0222 -21.6085 -21.6080 -21.6080 -14.0112  -5.8554  -5.1333  -5.1333
     0.9647   0.9647   1.1139   8.2183   8.4350   8.4352   9.2316   9.2317
     9.6757  10.2370  10.5674  10.5677  12.7932  12.8516  12.8548  15.4125

          k = 0.0829 0.0829 0.2488     band energies (ev):

   -45.0215 -21.6379 -21.6070 -21.6068 -13.9487  -5.9337  -5.1093  -5.0315
     1.0158   1.0356   1.3310   7.4793   8.1482   8.2378   8.7489   8.7681
     9.5399   9.5649  10.2568  10.2595  12.8920  13.6384  13.6485  15.4151

          k = 0.0829 0.0829 0.4147     band energies (ev):

   -45.0209 -21.6673 -21.6057 -21.6055 -13.8844  -6.0983  -5.0850  -4.8138
     1.0677   1.2004   1.4444   6.7240   7.9016   7.9790   8.1858   8.5221
     9.3066   9.4603   9.8919  10.0082  12.9534  14.3798  14.3878  15.4117

          k = 0.0829 0.2488 0.2488     band energies (ev):

   -45.0209 -21.6368 -21.6355 -21.6056 -13.8964  -5.8337  -5.0948  -5.0249
     0.9409   1.0360   1.4404   7.1457   7.6945   7.8990   8.2893   8.5166
     9.1156   9.8306   9.8729  10.3537  13.6205  13.7611  13.9836  15.9331

          k = 0.0829 0.2488 0.4147     band energies (ev):

   -45.0203 -21.6651 -21.6344 -21.6044 -13.8428  -5.8448  -5.0447  -4.9223
     0.9412   1.1298   1.3672   6.6372   7.2593   7.5347   7.9926   8.3561
     9.2194   9.5769   9.7819  10.3341  13.7336  14.4137  14.5216  16.0302

          k = 0.0829 0.4147 0.4147     band energies (ev):

   -45.0197 -21.6631 -21.6628 -21.6032 -13.8003  -5.5686  -5.0520  -4.9944
     0.9143   0.9611   1.3295   6.4651   6.7762   6.8786   8.0022   8.0286
     8.9857   9.8324  10.0018  10.6974  14.4231  14.4570  14.8276  16.2237

          k = 0.2488 0.2488 0.2488     band energies (ev):

   -45.0203 -21.6356 -21.6341 -21.6341 -13.8505  -5.6615  -5.0359  -5.0359
     0.7710   0.7711   1.5068   6.9162   7.6443   7.6444   8.1902   8.3572
     8.3573  10.1143  10.1144  10.1791  14.1062  14.1092  14.1096  17.1918

          k = 0.2488 0.2488 0.4147     band energies (ev):

   -45.0197 -21.6633 -21.6334 -21.6327 -13.8035  -5.5821  -4.9744  -4.9416
     0.5999   0.8021   1.2511   6.6121   7.2666   7.6122   7.6686   8.3293
     8.5269   9.8978  10.2313  10.2805  14.2217  14.6117  14.6520  17.1569

          k = 0.2488 0.4147 0.4147     band energies (ev):

   -45.0191 -21.6615 -21.6613 -21.6316 -13.7634  -5.2925  -4.9576  -4.9219
     0.4895   0.5433   0.8806   6.4788   6.8811   7.4591   7.7123   8.2722
     8.3648  10.1645  10.2819  10.6923  14.7352  14.7489  14.9579  17.4998

          k = 0.4147 0.4147 0.4147     band energies (ev):

   -45.0185 -21.6600 -21.6597 -21.6597 -13.7258  -4.9874  -4.8555  -4.8554
     0.1935   0.1935   0.3783   6.3512   6.8866   6.8868   8.1333   8.4074
     8.4074  10.6314  10.6317  10.7392  15.0945  15.0955  15.0989  18.0785

     highest occupied, lowest unoccupied level (ev):    10.7392   12.7932

!    total energy              =    -264.80573299 Ry
     Harris-Foulkes estimate   =    -264.80691642 Ry
     estimated scf accuracy    <       0.00374703 Ry

     The total energy is the sum of the following terms:

     one-electron contribution =     -69.60969761 Ry
     hartree contribution      =      58.31363122 Ry
     xc contribution           =     -42.72790047 Ry
     ewald contribution        =    -210.91954476 Ry
     scf correction            =       0.13777863 Ry

     iteration # 31     ecut=   100.00 Ry     beta=0.60
     Davidson diagonalization with overlap
     ethr =  9.37E-06,  avg # of iterations =  4.9

     total cpu time spent up to now is       31.0 secs

     total energy              =    -264.80655843 Ry
     Harris-Foulkes estimate   =    -264.80711510 Ry
     estimated scf accuracy    <       0.00104723 Ry

     iteration # 32     ecut=   100.00 Ry     beta=0.60
     Davidson diagonalization with overlap
     ethr =  2.62E-06,  avg # of iterations =  5.1

     total cpu time spent up to now is       31.3 secs

     total energy              =    -264.80683061 Ry
     Harris-Foulkes estimate   =    -264.80683249 Ry
     estimated scf accuracy    <       0.00000648 Ry

     iteration # 33     ecut=   100.00 Ry     beta=0.60
     Davidson diagonalization with overlap
     ethr =  1.62E-08,  avg # of iterations =  6.5

     total cpu time spent up to now is       32.2 secs

     total energy              =    -264.80684776 Ry
     Harris-Foulkes estimate   =    -264.80684793 Ry
     estimated scf accuracy    <       0.00000056 Ry

     iteration # 34     ecut=   100.00 Ry     beta=0.60
     Davidson diagonalization with overlap
     ethr =  1.39E-09,  avg # of iterations =  4.8

     total cpu time spent up to now is       32.5 secs

     total energy              =    -264.80684790 Ry
     Harris-Foulkes estimate   =    -264.80684792 Ry
     estimated scf accuracy    <       0.00000004 Ry

     iteration # 35     ecut=   100.00 Ry     beta=0.60
     Davidson diagonalization with overlap
     ethr =  1.09E-10,  avg # of iterations =  4.7

     total cpu time spent up to now is       32.8 secs

     total energy              =    -264.80684792 Ry
     Harris-Foulkes estimate   =    -264.80684792 Ry
     estimated scf accuracy    <          8.1E-10 Ry

     iteration # 36     ecut=   100.00 Ry     beta=0.60
     Davidson diagonalization with overlap
     ethr =  2.04E-12,  avg # of iterations =  5.3

     total cpu time spent up to now is       33.2 secs

     total energy              =    -264.80684792 Ry
     Harris-Foulkes estimate   =    -264.80684792 Ry
     estimated scf accuracy    <          7.2E-11 Ry

     iteration # 37     ecut=   100.00 Ry     beta=0.60
     Davidson diagonalization with overlap
     ethr =  1.79E-13,  avg # of iterations =  3.7

     total cpu time spent up to now is       33.5 secs

     total energy              =    -264.80684792 Ry
     Harris-Foulkes estimate   =    -264.80684792 Ry
     estimated scf accuracy    <          5.0E-12 Ry

     iteration # 38     ecut=   100.00 Ry     beta=0.60
     Davidson diagonalization with overlap
     ethr =  1.00E-13,  avg # of iterations =  1.2

     total cpu time spent up to now is       33.7 secs

     total energy              =    -264.80684792 Ry
     Harris-Foulkes estimate   =    -264.80684792 Ry
     estimated scf accuracy    <          4.3E-13 Ry

     iteration # 39     ecut=   100.00 Ry     beta=0.60
     Davidson diagonalization with overlap
     ethr =  1.00E-13,  avg # of iterations =  1.0

     total cpu time spent up to now is       33.9 secs

     total energy              =    -264.80684792 Ry
     Harris-Foulkes estimate   =    -264.80684792 Ry
     estimated scf accuracy    <          3.9E-14 Ry

     iteration # 40     ecut=   100.00 Ry     beta=0.60
     Davidson diagonalization with overlap
     ethr =  1.00E-13,  avg # of iterations =  1.0

     total cpu time spent up to now is       34.0 secs

     End of self-consistent calculation

          k = 0.0829 0.0829 0.0829 (  6955 PWs)   bands (ev):

   -44.9696 -21.5586 -21.5580 -21.5580 -13.9441  -5.9339  -5.2231  -5.2231
     1.0123   1.0123   1.1624   8.1616   8.3798   8.3798   9.1518   9.1518
     9.5843  10.1604  10.4855  10.4855  12.8207  12.8780  12.8780  15.4293

          k = 0.0829 0.0829 0.2488 (  6926 PWs)   bands (ev):

   -44.9690 -21.5885 -21.5570 -21.5567 -13.8803  -6.0115  -5.1995  -5.1189
     1.0650   1.0826   1.3789   7.4291   8.0927   8.1786   8.6836   8.7010
     9.4551   9.4869  10.1804  10.1815  12.9147  13.6530  13.6624  15.4354

          k = 0.0829 0.0829 0.4147 (  6934 PWs)   bands (ev):

   -44.9684 -21.6184 -21.5556 -21.5555 -13.8146  -6.1753  -5.1756  -4.9004
     1.1185   1.2511   1.4884   6.6802   7.8417   7.9173   8.1231   8.4639
     9.2325   9.3842   9.8184   9.9293  12.9768  14.3911  14.3991  15.4328

          k = 0.0829 0.2488 0.2488 (  6937 PWs)   bands (ev):

   -44.9684 -21.5874 -21.5860 -21.5556 -13.8270  -5.9123  -5.1808  -5.1143
     0.9842   1.0847   1.4902   7.0918   7.6486   7.8415   8.2349   8.4531
     9.0431   9.7420   9.8013  10.2682  13.6373  13.7737  14.0059  15.9488

          k = 0.0829 0.2488 0.4147 (  6934 PWs)   bands (ev):

   -44.9678 -21.6163 -21.5850 -21.5543 -13.7723  -5.9239  -5.1333  -5.0073
     0.9862   1.1734   1.4178   6.5916   7.2049   7.4864   7.9340   8.3018
     9.1527   9.5010   9.6994  10.2450  13.7499  14.4256  14.5435  16.0469

          k = 0.0829 0.4147 0.4147 (  6941 PWs)   bands (ev):

   -44.9671 -21.6143 -21.6139 -21.5531 -13.7290  -5.6528  -5.1340  -5.0793
     0.9528   1.0014   1.3840   6.4182   6.7250   6.8382   7.9472   7.9724
     8.9245   9.7516   9.9194  10.5996  14.4368  14.4708  14.8551  16.2385

          k = 0.2488 0.2488 0.2488 (  6935 PWs)   bands (ev):

   -44.9678 -21.5862 -21.5846 -21.5846 -13.7802  -5.7405  -5.1235  -5.1235
     0.8143   0.8143   1.5567   6.8608   7.5973   7.5973   8.1302   8.3043
     8.3043  10.0305  10.0305  10.0838  14.1245  14.1264  14.1264  17.1979

          k = 0.2488 0.2488 0.4147 (  6943 PWs)   bands (ev):

   -44.9672 -21.6144 -21.5839 -21.5832 -13.7324  -5.6625  -5.0639  -5.0265
     0.6435   0.8413   1.2978   6.5655   7.2163   7.5653   7.6179   8.2847
     8.4747   9.8114  10.1429  10.1873  14.2348  14.6278  14.6688  17.1635

          k = 0.2488 0.4147 0.4147 (  6950 PWs)   bands (ev):

   -44.9665 -21.6126 -21.6123 -21.5821 -13.6917  -5.3770  -5.0425  -5.0092
     0.5298   0.5809   0.9235   6.4302   6.8406   7.4143   7.6642   8.2271
     8.3213  10.0738  10.1904  10.5937  14.7482  14.7611  14.9785  17.5049

          k = 0.4147 0.4147 0.4147 (  6935 PWs)   bands (ev):

   -44.9659 -21.6110 -21.6108 -21.6108 -13.6537  -5.0736  -4.9440  -4.9440
     0.2318   0.2318   0.4165   6.2993   6.8464   6.8464   8.0942   8.3695
     8.3695  10.5339  10.5339  10.6391  15.1078  15.1078  15.1120  18.0828

     highest occupied, lowest unoccupied level (ev):    10.6391   12.8207

!    total energy              =    -264.80684792 Ry
     Harris-Foulkes estimate   =    -264.80684792 Ry
     estimated scf accuracy    <          6.8E-15 Ry

     The total energy is the sum of the following terms:

     one-electron contribution =     -69.59296819 Ry
     hartree contribution      =      58.45609347 Ry
     xc contribution           =     -42.75042843 Ry
     ewald contribution        =    -210.91954476 Ry

     convergence has been achieved in  40 iterations

     Forces acting on atoms (cartesian axes, Ry/au):

     atom    1 type  3   force =     0.00000000    0.00000000    0.00000000
     atom    2 type  2   force =     0.00000000    0.00000000    0.00000000
     atom    3 type  1   force =     0.00000000   -0.00000000    0.00000000
     atom    4 type  1   force =     0.00000000    0.00000000    0.00000000
     atom    5 type  1   force =     0.00000000    0.00000000   -0.00000000

     Total force =     0.000000     Total SCF correction =     0.000000


     Computing stress (Cartesian axis) and pressure

          total   stress  (Ry/bohr**3)                   (kbar)     P=    0.29
   0.00000200   0.00000000   0.00000000          0.29      0.00      0.00
   0.00000000   0.00000200   0.00000000          0.00      0.29      0.00
   0.00000000   0.00000000   0.00000200          0.00      0.00      0.29


     Writing output data file bto.save
 
     init_run     :      0.72s CPU      0.85s WALL (       2 calls)
     electrons    :     29.31s CPU     30.12s WALL (       4 calls)
     update_pot   :      0.75s CPU      0.97s WALL (       2 calls)
     forces       :      0.54s CPU      0.55s WALL (       4 calls)
     stress       :      1.07s CPU      1.08s WALL (       4 calls)

     Called by init_run:
     wfcinit      :      0.10s CPU      0.11s WALL (       2 calls)
     potinit      :      0.15s CPU      0.16s WALL (       2 calls)

     Called by electrons:
     c_bands      :     21.83s CPU     22.34s WALL (     103 calls)
     sum_band     :      5.02s CPU      5.12s WALL (     103 calls)
     v_of_rho     :      0.15s CPU      0.16s WALL (     107 calls)
     newd         :      2.04s CPU      2.08s WALL (     107 calls)
     mix_rho      :      0.16s CPU      0.17s WALL (     103 calls)

     Called by c_bands:
     init_us_2    :      0.28s CPU      0.28s WALL (    2160 calls)
     cegterg      :     20.58s CPU     21.04s WALL (    1030 calls)

     Called by sum_band:
     sum_band:bec :      0.00s CPU      0.01s WALL (    1030 calls)
     addusdens    :      2.41s CPU      2.43s WALL (     103 calls)

     Called by *egterg:
     h_psi        :     11.76s CPU     12.13s WALL (    4676 calls)
     s_psi        :      0.42s CPU      0.37s WALL (    4676 calls)
     g_psi        :      0.05s CPU      0.07s WALL (    3626 calls)
     cdiaghg      :      5.42s CPU      5.43s WALL (    4636 calls)

     Called by h_psi:
     h_psi:pot    :     11.73s CPU     12.07s WALL (    4676 calls)
     h_psi:calbec :      0.76s CPU      0.72s WALL (    4676 calls)
     vloc_psi     :     10.60s CPU     10.92s WALL (    4676 calls)
     add_vuspsi   :      0.36s CPU      0.41s WALL (    4676 calls)

     General routines
     calbec       :      1.02s CPU      0.97s WALL (    5906 calls)
     fft          :      0.48s CPU      0.51s WALL (     969 calls)
     ffts         :      0.03s CPU      0.03s WALL (     210 calls)
     fftw         :     11.12s CPU     11.29s WALL (  171216 calls)
     interpolate  :      0.11s CPU      0.12s WALL (     210 calls)
     davcio       :      0.00s CPU      0.00s WALL (      20 calls)
 
     Parallel routines
     fft_scatter  :      6.39s CPU      6.29s WALL (  172395 calls)
 
     PWSCF        :    32.81s CPU        34.45s WALL

 
   This run was terminated on:  12:14:53  31Dec2017            

=------------------------------------------------------------------------------=
   JOB DONE.
=------------------------------------------------------------------------------=
