
     Program PWSCF v.6.1 (svn rev. 13369) starts on  5Jan2018 at 11:25:13 

     This program is part of the open-source Quantum ESPRESSO suite
     for quantum simulation of materials; please cite
         "P. Giannozzi et al., J. Phys.:Condens. Matter 21 395502 (2009);
          URL http://www.quantum-espresso.org", 
     in publications or presentations arising from this work. More details at
     http://www.quantum-espresso.org/quote

     Parallel version (MPI), running on    28 processors
     R & G space division:  proc/nbgrp/npool/nimage =      28
     Waiting for input...
     Reading input from standard input

     Current dimensions of program PWSCF are:
     Max number of different atomic species (ntypx) = 10
     Max number of k-points (npk) =  40000
     Max angular momentum in pseudopotentials (lmaxx) =  3

     Subspace diagonalization in iterative solution of the eigenvalue problem:
     a serial algorithm will be used

 
     Parallelization info
     --------------------
     sticks:   dense  smooth     PW     G-vecs:    dense   smooth      PW
     Min         125      62     17                 5539     1956     291
     Max         126      63     18                 5541     1961     296
     Sum        3505    1749    489               155139    54795    8217
 

     Title: 
     cubic BaTiO3 at 7.40 lattice parameter. xc=PZ                              


     bravais-lattice index     =            1
     lattice parameter (alat)  =       7.4000  a.u.
     unit-cell volume          =     405.2240 (a.u.)^3
     number of atoms/cell      =            5
     number of atomic types    =            3
     number of electrons       =        40.00
     number of Kohn-Sham states=           24
     kinetic-energy cutoff     =     100.0000  Ry
     charge density cutoff     =     800.0000  Ry
     convergence threshold     =      1.0E-12
     mixing beta               =       0.6000
     number of iterations used =            8  plain     mixing
     Exchange-correlation      = SLA-PZ-NOGX-NOGC ( 1  1  0  0 0 0)
     nstep                     =           50


     celldm(1)=   7.400000  celldm(2)=   0.000000  celldm(3)=   0.000000
     celldm(4)=   0.000000  celldm(5)=   0.000000  celldm(6)=   0.000000

     crystal axes: (cart. coord. in units of alat)
               a(1) = (   1.000000   0.000000   0.000000 )  
               a(2) = (   0.000000   1.000000   0.000000 )  
               a(3) = (   0.000000   0.000000   1.000000 )  

     reciprocal axes: (cart. coord. in units 2 pi/alat)
               b(1) = (  1.000000  0.000000  0.000000 )  
               b(2) = (  0.000000  1.000000  0.000000 )  
               b(3) = (  0.000000  0.000000  1.000000 )  


     PseudoPot. # 1 for O  read from file:
     ../../PSP_DIR/O.pz-van_ak.UPF
     MD5 check sum: d814fcb982dd9af4fc6452aae6bb9318
     Pseudo is Ultrasoft, Zval =  6.0
     Generated by new atomic code, or converted to UPF format
     Using radial grid of  737 points,  4 beta functions with: 
                l(1) =   0
                l(2) =   0
                l(3) =   1
                l(4) =   1
     Q(r) pseudized with  8 coefficients,  rinner =    0.800   0.800   0.800


     PseudoPot. # 2 for Ti read from file:
     ../../PSP_DIR/Ti.pz-sp-van_ak.UPF
     MD5 check sum: 545d0e6e05332b8871a8093f427cb0ca
     Pseudo is Ultrasoft, Zval = 12.0
     Generated by new atomic code, or converted to UPF format
     Using radial grid of  851 points,  6 beta functions with: 
                l(1) =   0
                l(2) =   0
                l(3) =   1
                l(4) =   1
                l(5) =   2
                l(6) =   2
     Q(r) pseudized with  8 coefficients,  rinner =    1.000   1.000   1.000
                                                       1.000   1.000

     PseudoPot. # 3 for Ba read from file:
     ../../PSP_DIR/Ba.pz-sp-hgh.UPF
     MD5 check sum: 155c4e4bbe33bd45901c985a874b3acf
     Pseudo is Norm-conserving, Zval = 10.0
     Generated in analytical, separable form
     Using radial grid of 1251 points,  6 beta functions with: 
                l(1) =   0
                l(2) =   0
                l(3) =   1
                l(4) =   1
                l(5) =   2
                l(6) =   3

     atomic species   valence    mass     pseudopotential
        O              6.00    15.99000     O ( 1.00)
        Ti            12.00    47.88000     Ti( 1.00)
        Ba            10.00   137.33000     Ba( 1.00)

      8 Sym. Ops. (no inversion) found



   Cartesian axes

     site n.     atom                  positions (alat units)
         1           Ba  tau(   1) = (   0.0000000   0.0000000   0.0000000  )
         2           Ti  tau(   2) = (   0.5100000   0.5000000   0.5000000  )
         3           O   tau(   3) = (   0.0000000   0.5000000   0.5000000  )
         4           O   tau(   4) = (   0.5000000   0.0000000   0.5000000  )
         5           O   tau(   5) = (   0.5000000   0.5000000   0.0000000  )

     number of k points=    18
                       cart. coord. in units 2pi/alat
        k(    1) = (   0.0833333   0.0833333   0.0833333), wk =   0.0740741
        k(    2) = (   0.0833333   0.0833333   0.2500000), wk =   0.1481481
        k(    3) = (   0.0833333   0.0833333   0.4166667), wk =   0.1481481
        k(    4) = (   0.0833333   0.2500000   0.2500000), wk =   0.0740741
        k(    5) = (   0.0833333   0.2500000   0.4166667), wk =   0.1481481
        k(    6) = (   0.0833333   0.4166667   0.4166667), wk =   0.0740741
        k(    7) = (   0.2500000   0.2500000   0.2500000), wk =   0.0740741
        k(    8) = (   0.2500000   0.2500000   0.4166667), wk =   0.1481481
        k(    9) = (   0.2500000   0.4166667   0.4166667), wk =   0.0740741
        k(   10) = (   0.4166667   0.4166667   0.4166667), wk =   0.0740741
        k(   11) = (   0.2500000  -0.0833333   0.0833333), wk =   0.0740741
        k(   12) = (   0.4166667  -0.0833333   0.0833333), wk =   0.0740741
        k(   13) = (   0.2500000  -0.2500000   0.0833333), wk =   0.1481481
        k(   14) = (   0.4166667  -0.2500000   0.0833333), wk =   0.1481481
        k(   15) = (   0.2500000   0.4166667   0.0833333), wk =   0.1481481
        k(   16) = (   0.4166667  -0.4166667   0.0833333), wk =   0.1481481
        k(   17) = (   0.4166667  -0.2500000   0.2500000), wk =   0.0740741
        k(   18) = (   0.4166667  -0.4166667   0.2500000), wk =   0.1481481

     Dense  grid:   155139 G-vectors     FFT dimensions: (  72,  72,  72)

     Smooth grid:    54795 G-vectors     FFT dimensions: (  48,  48,  48)

     Estimated max dynamical RAM per process >       6.38MB

     Estimated total allocated dynamical RAM >     178.54MB

     Initial potential from superposition of free atoms

     starting charge   28.99996, renormalised to   40.00000
     Starting wfc are   22 randomized atomic wfcs +    2 random wfc

     total cpu time spent up to now is        1.1 secs

     per-process dynamical memory:    58.6 Mb

     Self-consistent Calculation

     iteration #  1     ecut=   100.00 Ry     beta=0.60
     Davidson diagonalization with overlap
     ethr =  1.00E-02,  avg # of iterations = 12.0

     total cpu time spent up to now is        2.4 secs

     total energy              =      56.16094923 Ry
     Harris-Foulkes estimate   =    -388.55439180 Ry
     estimated scf accuracy    <     586.82520634 Ry

     iteration #  2     ecut=   100.00 Ry     beta=0.60
     Davidson diagonalization with overlap
     ethr =  1.00E-02,  avg # of iterations =  8.2

     total cpu time spent up to now is        3.4 secs

     total energy              =    -286.23189068 Ry
     Harris-Foulkes estimate   =    -456.83575294 Ry
     estimated scf accuracy    <     315.54066764 Ry

     iteration #  3     ecut=   100.00 Ry     beta=0.60
     Davidson diagonalization with overlap
     ethr =  1.00E-02,  avg # of iterations =  3.8

     total cpu time spent up to now is        4.0 secs

     total energy              =    -277.52758293 Ry
     Harris-Foulkes estimate   =    -302.78488083 Ry
     estimated scf accuracy    <      85.07695177 Ry

     iteration #  4     ecut=   100.00 Ry     beta=0.60
     Davidson diagonalization with overlap
     ethr =  1.00E-02,  avg # of iterations =  4.3

     total cpu time spent up to now is        4.5 secs

     total energy              =    -272.56594565 Ry
     Harris-Foulkes estimate   =    -279.28891630 Ry
     estimated scf accuracy    <      40.46380220 Ry

     iteration #  5     ecut=   100.00 Ry     beta=0.60
     Davidson diagonalization with overlap
     ethr =  1.00E-02,  avg # of iterations =  3.1

     total cpu time spent up to now is        4.8 secs

     total energy              =    -273.13374295 Ry
     Harris-Foulkes estimate   =    -273.03996553 Ry
     estimated scf accuracy    <      21.10096115 Ry

     iteration #  6     ecut=   100.00 Ry     beta=0.60
     Davidson diagonalization with overlap
     ethr =  1.00E-02,  avg # of iterations =  1.2

     total cpu time spent up to now is        5.2 secs

     total energy              =    -272.15468781 Ry
     Harris-Foulkes estimate   =    -273.16054452 Ry
     estimated scf accuracy    <      22.59417649 Ry

     iteration #  7     ecut=   100.00 Ry     beta=0.60
     Davidson diagonalization with overlap
     ethr =  1.00E-02,  avg # of iterations =  1.0

     total cpu time spent up to now is        5.5 secs

     total energy              =    -269.91544097 Ry
     Harris-Foulkes estimate   =    -272.16799454 Ry
     estimated scf accuracy    <      20.17352144 Ry

     iteration #  8     ecut=   100.00 Ry     beta=0.60
     Davidson diagonalization with overlap
     ethr =  1.00E-02,  avg # of iterations =  1.3

     total cpu time spent up to now is        5.8 secs

     total energy              =    -270.43111240 Ry
     Harris-Foulkes estimate   =    -270.01151425 Ry
     estimated scf accuracy    <      13.23964044 Ry

     iteration #  9     ecut=   100.00 Ry     beta=0.60
     Davidson diagonalization with overlap
     ethr =  1.00E-02,  avg # of iterations =  1.2

     total cpu time spent up to now is        6.1 secs

     total energy              =    -264.24263878 Ry
     Harris-Foulkes estimate   =    -270.45299055 Ry
     estimated scf accuracy    <      13.68396669 Ry

     iteration # 10     ecut=   100.00 Ry     beta=0.60
     Davidson diagonalization with overlap
     ethr =  1.00E-02,  avg # of iterations =  2.8

     total cpu time spent up to now is        6.5 secs

          k = 0.0833 0.0833 0.0833     band energies (ev):

   -46.4129 -23.3313 -23.1165 -23.1152  -9.1604  -7.2025  -7.0538  -5.8434
     4.2394   4.2941   4.4818   7.2145   7.3199   7.4157   7.7287   7.8059
     8.0764   9.4197   9.9681  10.0482  11.2811  11.3409  11.3751  13.8671

          k = 0.0833 0.0833 0.2500     band energies (ev):

   -46.4121 -23.3278 -23.1508 -23.1120  -8.8250  -7.2102  -7.0583  -5.9788
     4.3467   4.4498   4.8126   6.2597   6.7335   6.9959   7.6863   7.7719
     8.0066   8.3636   9.5706   9.7373  11.2821  12.1177  12.2577  13.8819

          k = 0.0833 0.0833 0.4167     band energies (ev):

   -46.4110 -23.3251 -23.1841 -23.1096  -8.2408  -7.5808  -7.1164  -5.9152
     4.3761   4.6235   5.0501   5.6921   6.2770   6.5894   7.3166   7.7529
     7.9902   8.1002   9.0280   9.1734  11.4242  12.8324  12.9668  13.8103

          k = 0.0833 0.2500 0.2500     band energies (ev):

   -46.4113 -23.3283 -23.1434 -23.1414  -8.5113  -7.2274  -6.9093  -6.1792
     4.1527   4.4463   5.1581   5.7764   5.9885   6.9242   7.2197   7.2468
     7.9418   8.3688   9.1698   9.8658  12.0933  12.2288  12.6831  14.3049

          k = 0.0833 0.2500 0.4167     band energies (ev):

   -46.4105 -23.3249 -23.1832 -23.1405  -7.9843  -7.4374  -6.9544  -6.1765
     4.1885   4.3775   4.8099   5.6293   5.7371   6.2179   6.5329   7.4594
     8.3605   8.5489   8.6632   9.6077  12.2214  12.8861  13.2477  14.4079

          k = 0.0833 0.4167 0.4167     band energies (ev):

   -46.4100 -23.3229 -23.1819 -23.1753  -7.6561  -7.2909  -6.7583  -6.5489
     4.0980   4.1817   4.4817   4.8436   5.3172   6.2385   6.8092   6.8110
     7.7125   9.0200   9.3305   9.7187  12.8485  12.9436  13.5885  14.5981

          k = 0.2500 0.2500 0.2500     band energies (ev):

   -46.4102 -23.3571 -23.1428 -23.1401  -8.2088  -7.0319  -6.8834  -6.3958
     3.7861   3.9210   5.2673   5.6486   5.7353   6.0344   6.8946   7.7216
     7.8238   8.5347   9.5276   9.6262  12.6443  12.6470  12.7962  15.7229

          k = 0.2500 0.2500 0.4167     band energies (ev):

   -46.4087 -23.3539 -23.1707 -23.1378  -7.7086  -7.1889  -6.9320  -6.3437
     3.5541   3.7647   4.6875   4.9738   5.4696   5.7210   6.9715   8.1379
     8.3594   8.6577   9.2415   9.4045  12.7596  13.1781  13.3342  15.5991

          k = 0.2500 0.4167 0.4167     band energies (ev):

   -46.4077 -23.3530 -23.1784 -23.1692  -7.3651  -7.1105  -6.7160  -6.5866
     3.2866   3.3028   4.0312   4.5218   5.0029   5.4829   7.7751   8.0167
     8.8017   9.0420   9.1513   9.4928  13.2659  13.2781  13.6872  15.9905

          k = 0.4167 0.4167 0.4167     band energies (ev):

   -46.4068 -23.3829 -23.1668 -23.1660  -7.0452  -6.8690  -6.6940  -6.6744
     2.7458   2.8484   3.1269   4.3354   4.6684   5.0090   8.8177   8.9479
     8.9790   9.0709   9.3315   9.4729  13.6262  13.6432  13.7893  17.2436

          k = 0.2500-0.0833 0.0833     band energies (ev):

   -46.4121 -23.3666 -23.1145 -23.1102  -8.8201  -7.1791  -7.0380  -6.0359
     4.3592   4.3686   4.7492   6.2036   6.8013   7.0229   7.7556   7.8312
     8.0198   8.3900   9.4974   9.7300  11.4973  12.0405  12.0973  13.9728

          k = 0.4167-0.0833 0.0833     band energies (ev):

   -46.4105 -23.3916 -23.1115 -23.1070  -8.2374  -7.5526  -7.0219  -6.0390
     4.2285   4.4938   4.9376   5.7992   6.4076   6.6898   7.3591   7.7684
     8.1645   8.1771   8.9240   9.0953  11.5489  12.7991  12.8198  13.9336

          k = 0.2500-0.2500 0.0833     band energies (ev):

   -46.4114 -23.3628 -23.1470 -23.1124  -8.5040  -7.1135  -6.9968  -6.2172
     4.2078   4.3783   5.0927   5.7384   5.9438   7.0088   7.1921   7.2979
     8.0709   8.3225   9.0647   9.9504  12.1225  12.3233  12.5342  14.4236

          k = 0.4167-0.2500 0.0833     band energies (ev):

   -46.4104 -23.3902 -23.1404 -23.1104  -7.9659  -7.3681  -6.9214  -6.3073
     4.1344   4.2845   4.8540   5.5477   5.7335   6.1802   6.6500   7.5532
     8.3272   8.4467   8.8148   9.6579  12.3553  12.8633  13.0746  14.5486

          k = 0.2500 0.4167 0.0833     band energies (ev):

   -46.4105 -23.3574 -23.1821 -23.1085  -7.9563  -7.3527  -7.0657  -6.1798
     4.2717   4.3543   4.8038   5.5578   5.6556   6.1828   6.5995   7.4481
     8.3900   8.4333   8.7505   9.7309  12.2137  13.0193  13.1026  14.4960

          k = 0.4167-0.4167 0.0833     band energies (ev):

   -46.4100 -23.3876 -23.1718 -23.1089  -7.5283  -7.2375  -6.8888  -6.5885
     4.1178   4.3033   4.4008   4.7857   5.2185   6.1811   6.7852   6.9609
     7.6007   8.9029   9.5067   9.8821  12.9064  13.0695  13.4526  14.7458

          k = 0.4167-0.2500 0.2500     band energies (ev):

   -46.4094 -23.3937 -23.1399 -23.1376  -7.7179  -7.1393  -6.8552  -6.4771
     3.4497   3.9138   4.5179   4.9008   5.6466   5.7096   6.8136   8.3143
     8.4757   8.6116   9.1662   9.3986  12.9042  13.1328  13.1856  15.7115

          k = 0.4167-0.4167 0.2500     band energies (ev):

   -46.4077 -23.3854 -23.1694 -23.1362  -7.3095  -6.9915  -6.8569  -6.6193
     3.2410   3.4447   3.9515   4.4109   4.9007   5.6944   7.6881   8.0409
     8.7158   8.9489   9.2678   9.6310  13.2644  13.4206  13.5384  16.1234

     highest occupied, lowest unoccupied level (ev):    10.0482   11.2811

!    total energy              =    -264.45255558 Ry
     Harris-Foulkes estimate   =    -265.54933223 Ry
     estimated scf accuracy    <       1.59834356 Ry

     The total energy is the sum of the following terms:

     one-electron contribution =     -70.63008146 Ry
     hartree contribution      =      55.54303870 Ry
     xc contribution           =     -42.41954116 Ry
     ewald contribution        =    -211.89562325 Ry
     scf correction            =       4.94965158 Ry

     iteration # 11     ecut=   100.00 Ry     beta=0.60
     Davidson diagonalization with overlap
     ethr =  4.00E-03,  avg # of iterations =  3.1

     total cpu time spent up to now is        7.0 secs

     total energy              =    -265.53345090 Ry
     Harris-Foulkes estimate   =    -265.63094787 Ry
     estimated scf accuracy    <       8.72475724 Ry

     iteration # 12     ecut=   100.00 Ry     beta=0.60
     Davidson diagonalization with overlap
     ethr =  4.00E-03,  avg # of iterations =  1.0

     total cpu time spent up to now is        7.3 secs

     total energy              =    -266.24126904 Ry
     Harris-Foulkes estimate   =    -265.55766311 Ry
     estimated scf accuracy    <       9.12528047 Ry

     iteration # 13     ecut=   100.00 Ry     beta=0.60
     Davidson diagonalization with overlap
     ethr =  4.00E-03,  avg # of iterations =  1.0

     total cpu time spent up to now is        7.6 secs

     total energy              =    -266.67508978 Ry
     Harris-Foulkes estimate   =    -266.48466633 Ry
     estimated scf accuracy    <      22.38064949 Ry

     iteration # 14     ecut=   100.00 Ry     beta=0.60
     Davidson diagonalization with overlap
     ethr =  4.00E-03,  avg # of iterations =  1.0

     total cpu time spent up to now is        7.9 secs

     total energy              =    -266.36579688 Ry
     Harris-Foulkes estimate   =    -266.71156021 Ry
     estimated scf accuracy    <      23.96367100 Ry

     iteration # 15     ecut=   100.00 Ry     beta=0.60
     Davidson diagonalization with overlap
     ethr =  4.00E-03,  avg # of iterations =  1.0

     total cpu time spent up to now is        8.2 secs

     total energy              =    -266.63807677 Ry
     Harris-Foulkes estimate   =    -266.37945968 Ry
     estimated scf accuracy    <      21.35023850 Ry

     iteration # 16     ecut=   100.00 Ry     beta=0.60
     Davidson diagonalization with overlap
     ethr =  4.00E-03,  avg # of iterations =  1.0

     total cpu time spent up to now is        8.5 secs

     total energy              =    -264.82167029 Ry
     Harris-Foulkes estimate   =    -266.65140893 Ry
     estimated scf accuracy    <      24.62921324 Ry

     iteration # 17     ecut=   100.00 Ry     beta=0.60
     Davidson diagonalization with overlap
     ethr =  4.00E-03,  avg # of iterations =  2.1

     total cpu time spent up to now is        8.8 secs

     total energy              =    -265.02393058 Ry
     Harris-Foulkes estimate   =    -265.24148650 Ry
     estimated scf accuracy    <       5.88696457 Ry

     iteration # 18     ecut=   100.00 Ry     beta=0.60
     Davidson diagonalization with overlap
     ethr =  4.00E-03,  avg # of iterations =  1.7

     total cpu time spent up to now is        9.2 secs

     total energy              =    -264.65130699 Ry
     Harris-Foulkes estimate   =    -265.10659830 Ry
     estimated scf accuracy    <       2.88911051 Ry

     iteration # 19     ecut=   100.00 Ry     beta=0.60
     Davidson diagonalization with overlap
     ethr =  4.00E-03,  avg # of iterations =  2.0

     total cpu time spent up to now is        9.5 secs

     total energy              =    -264.80218265 Ry
     Harris-Foulkes estimate   =    -264.83366354 Ry
     estimated scf accuracy    <       0.22082566 Ry

     iteration # 20     ecut=   100.00 Ry     beta=0.60
     Davidson diagonalization with overlap
     ethr =  5.52E-04,  avg # of iterations =  2.1

     total cpu time spent up to now is        9.8 secs

          k = 0.0833 0.0833 0.0833     band energies (ev):

   -45.6681 -22.2386 -22.0973 -22.0970 -13.9380  -5.9469  -5.1705  -4.8841
     1.0391   1.0878   1.2369   8.1710   8.4036   8.5612   9.2549   9.2815
     9.7502  10.3197  10.6297  10.7491  12.5414  12.6078  12.7233  14.9845

          k = 0.0833 0.0833 0.2500     band energies (ev):

   -45.6675 -22.2374 -22.1244 -22.0960 -13.8719  -6.0830  -5.0907  -4.7867
     1.1062   1.1723   1.4389   7.5806   8.0724   8.1879   8.7259   8.9574
     9.5005   9.7210  10.2479  10.3795  12.6288  13.4015  13.5328  15.0173

          k = 0.0833 0.0833 0.4167     band energies (ev):

   -45.6669 -22.2362 -22.1513 -22.0947 -13.8034  -6.2578  -5.0699  -4.5607
     1.1880   1.3387   1.5360   6.8391   7.8269   7.8843   8.1830   8.6876
     9.3224   9.6413   9.8896  10.0091  12.6761  14.1239  14.2545  15.0127

          k = 0.0833 0.2500 0.2500     band energies (ev):

   -45.6669 -22.2362 -22.1233 -22.1221 -13.8163  -6.0559  -4.9404  -4.8545
     1.0132   1.1780   1.5642   7.2401   7.8024   7.9721   8.3590   8.5989
     8.9173   9.6565   9.8086  10.6487  13.3529  13.5142  13.8692  15.5214

          k = 0.0833 0.2500 0.4167     band energies (ev):

   -45.6663 -22.2350 -22.1494 -22.1212 -13.7595  -6.0816  -4.9482  -4.6902
     1.0328   1.2293   1.5134   6.7566   7.4665   7.6526   7.9581   8.4244
     8.9967   9.4079   9.5766  10.6841  13.4594  14.1451  14.3725  15.6223

          k = 0.0833 0.4167 0.4167     band energies (ev):

   -45.6657 -22.2339 -22.1475 -22.1473 -13.7143  -5.9104  -4.8205  -4.8096
     0.9873   1.0438   1.5054   6.6193   6.9528   7.0561   8.0391   8.1168
     8.7144   9.5604   9.7205  11.0824  14.1445  14.1818  14.6535  15.8136

          k = 0.2500 0.2500 0.2500     band energies (ev):

   -45.6663 -22.2646 -22.1216 -22.1207 -13.7696  -5.7790  -5.0579  -4.7899
     0.8303   0.9079   1.6373   6.9147   7.4044   7.7630   8.2282   8.3436
     8.5055  10.0217  10.1454  10.5110  13.8010  13.8316  13.9899  16.7903

          k = 0.2500 0.2500 0.4167     band energies (ev):

   -45.6657 -22.2632 -22.1475 -22.1198 -13.7194  -5.7802  -4.9188  -4.6974
     0.7106   0.8703   1.3865   6.7268   7.2219   7.4437   7.7563   8.4318
     8.4700   9.8558  10.1495  10.6381  13.9129  14.3403  14.4876  16.8030

          k = 0.2500 0.4167 0.4167     band energies (ev):

   -45.6651 -22.2618 -22.1459 -22.1457 -13.6767  -5.6208  -4.7428  -4.7169
     0.5829   0.5965   1.0292   6.6408   6.9557   7.3308   7.7356   8.2797
     8.3833  10.0204  10.1029  11.0853  14.4356  14.4503  14.7890  17.1565

          k = 0.4167 0.4167 0.4167     band energies (ev):

   -45.6645 -22.2895 -22.1443 -22.1442 -13.6385  -5.2960  -4.6874  -4.6038
     0.2271   0.2967   0.4983   6.2712   6.7822   6.9617   8.0990   8.3333
     8.6125  10.5872  10.6250  11.0721  14.7526  14.7567  14.9385  18.3314

          k = 0.2500-0.0833 0.0833     band energies (ev):

   -45.6674 -22.2675 -22.0960 -22.0957 -13.8746  -5.8069  -5.2971  -4.8583
     1.0851   1.1394   1.4867   7.2360   8.1965   8.4423   8.6876   8.7301
     9.5837   9.7308  10.4143  10.5028  12.7491  13.3368  13.3419  15.1280

          k = 0.4167-0.0833 0.0833     band energies (ev):

   -45.6668 -22.2965 -22.0946 -22.0945 -13.8093  -5.8710  -5.1890  -4.8321
     1.1313   1.2789   1.6390   6.3870   7.9455   8.2228   8.2569   8.4378
     9.2794   9.5238  10.1399  10.3012  12.8018  14.0143  14.0184  15.1242

          k = 0.2500-0.2500 0.0833     band energies (ev):

   -45.6668 -22.2661 -22.1227 -22.0947 -13.8187  -5.8365  -5.2063  -4.7995
     1.0471   1.1354   1.5706   7.0644   7.5443   7.9096   8.2421   8.6239
     9.3200   9.8874  10.0845  10.4375  13.3524  13.5914  13.7072  15.6330

          k = 0.4167-0.2500 0.0833     band energies (ev):

   -45.6663 -22.2946 -22.1210 -22.0934 -13.7641  -5.6340  -5.2837  -4.7850
     1.0018   1.2825   1.4911   6.3257   7.1300   7.6805   8.1132   8.2721
     9.4579   9.7134  10.0757  10.3343  13.6021  14.0427  14.1800  15.7663

          k = 0.2500 0.4167 0.0833     band energies (ev):

   -45.6663 -22.2645 -22.1493 -22.0935 -13.7612  -5.9503  -5.0754  -4.6757
     1.0942   1.1995   1.4885   6.7334   7.1695   7.2778   7.8238   8.5864
     9.3591   9.7813   9.9594  10.3336  13.4093  14.2345  14.2768  15.7096

          k = 0.4167-0.4167 0.0833     band energies (ev):

   -45.6657 -22.2926 -22.1472 -22.0923 -13.7178  -5.5308  -5.1965  -4.7742
     0.9853   1.1322   1.4246   6.2753   6.6630   6.8550   7.7411   8.2771
     9.1889  10.0649  10.3188  10.6467  14.0643  14.2974  14.4961  15.9562

          k = 0.4167-0.2500 0.2500     band energies (ev):

   -45.6656 -22.2928 -22.1200 -22.1193 -13.7218  -5.4430  -5.2226  -4.7223
     0.6462   0.9686   1.3526   6.3137   7.1297   7.7332   7.7945   8.2543
     8.7791  10.1575  10.2761  10.3338  14.0920  14.2655  14.3001  16.9539

          k = 0.4167-0.4167 0.2500     band energies (ev):

   -45.6651 -22.2910 -22.1457 -22.1184 -13.6786  -5.4029  -4.9690  -4.6877
     0.5451   0.6777   0.9803   6.2936   6.8471   7.3914   7.8220   8.1728
     8.5650  10.2719  10.5989  10.6531  14.3874  14.5958  14.6239  17.3239

     highest occupied, lowest unoccupied level (ev):    11.0853   12.5414

!    total energy              =    -264.81047593 Ry
     Harris-Foulkes estimate   =    -264.82159100 Ry
     estimated scf accuracy    <       0.07330734 Ry

     The total energy is the sum of the following terms:

     one-electron contribution =     -69.58344476 Ry
     hartree contribution      =      57.66202918 Ry
     xc contribution           =     -42.70060266 Ry
     ewald contribution        =    -211.89562325 Ry
     scf correction            =       1.70716556 Ry

     iteration # 21     ecut=   100.00 Ry     beta=0.60
     Davidson diagonalization with overlap
     ethr =  1.83E-04,  avg # of iterations =  2.0

     total cpu time spent up to now is       10.2 secs

     total energy              =    -264.80674398 Ry
     Harris-Foulkes estimate   =    -264.81277921 Ry
     estimated scf accuracy    <       0.04057635 Ry

     iteration # 22     ecut=   100.00 Ry     beta=0.60
     Davidson diagonalization with overlap
     ethr =  1.01E-04,  avg # of iterations =  2.0

     total cpu time spent up to now is       10.5 secs

     total energy              =    -264.80549982 Ry
     Harris-Foulkes estimate   =    -264.80803884 Ry
     estimated scf accuracy    <       0.01930990 Ry

     iteration # 23     ecut=   100.00 Ry     beta=0.60
     Davidson diagonalization with overlap
     ethr =  4.83E-05,  avg # of iterations =  2.0

     total cpu time spent up to now is       10.8 secs

     total energy              =    -264.80511885 Ry
     Harris-Foulkes estimate   =    -264.80649745 Ry
     estimated scf accuracy    <       0.00752513 Ry

     iteration # 24     ecut=   100.00 Ry     beta=0.60
     Davidson diagonalization with overlap
     ethr =  1.88E-05,  avg # of iterations =  4.1

     total cpu time spent up to now is       11.2 secs

     total energy              =    -264.80528287 Ry
     Harris-Foulkes estimate   =    -264.80606619 Ry
     estimated scf accuracy    <       0.00197554 Ry

     iteration # 25     ecut=   100.00 Ry     beta=0.60
     Davidson diagonalization with overlap
     ethr =  4.94E-06,  avg # of iterations =  5.1

     total cpu time spent up to now is       11.8 secs

     total energy              =    -264.80606405 Ry
     Harris-Foulkes estimate   =    -264.80607392 Ry
     estimated scf accuracy    <       0.00005524 Ry

     iteration # 26     ecut=   100.00 Ry     beta=0.60
     Davidson diagonalization with overlap
     ethr =  1.38E-07,  avg # of iterations =  4.4

     total cpu time spent up to now is       12.3 secs

     total energy              =    -264.80607826 Ry
     Harris-Foulkes estimate   =    -264.80608417 Ry
     estimated scf accuracy    <       0.00002353 Ry

     iteration # 27     ecut=   100.00 Ry     beta=0.60
     Davidson diagonalization with overlap
     ethr =  5.88E-08,  avg # of iterations =  1.9

     total cpu time spent up to now is       12.6 secs

     total energy              =    -264.80607838 Ry
     Harris-Foulkes estimate   =    -264.80608018 Ry
     estimated scf accuracy    <       0.00000560 Ry

     iteration # 28     ecut=   100.00 Ry     beta=0.60
     Davidson diagonalization with overlap
     ethr =  1.40E-08,  avg # of iterations =  3.8

     total cpu time spent up to now is       13.1 secs

     total energy              =    -264.80607992 Ry
     Harris-Foulkes estimate   =    -264.80607993 Ry
     estimated scf accuracy    <       0.00000003 Ry

     iteration # 29     ecut=   100.00 Ry     beta=0.60
     Davidson diagonalization with overlap
     ethr =  8.16E-11,  avg # of iterations =  6.4

     total cpu time spent up to now is       13.7 secs

     total energy              =    -264.80608006 Ry
     Harris-Foulkes estimate   =    -264.80608007 Ry
     estimated scf accuracy    <          8.0E-09 Ry

     iteration # 30     ecut=   100.00 Ry     beta=0.60
     Davidson diagonalization with overlap
     ethr =  2.01E-11,  avg # of iterations =  3.5

     total cpu time spent up to now is       14.2 secs

          k = 0.0833 0.0833 0.0833     band energies (ev):

   -44.6839 -21.2893 -21.2843 -21.2839 -13.7027  -5.7512  -5.0513  -5.0415
     1.2470   1.2484   1.4053   8.3813   8.6022   8.6037   9.3240   9.3301
     9.7668  10.3650  10.7035  10.7099  13.0846  13.1407  13.1523  15.7729

          k = 0.0833 0.0833 0.2500     band energies (ev):

   -44.6832 -21.3167 -21.2878 -21.2827 -13.6340  -5.8428  -5.0244  -4.9281
     1.3027   1.3224   1.6341   7.6285   8.2984   8.3832   8.8649   8.8871
     9.6383   9.6868  10.3666  10.4246  13.1907  13.9230  13.9371  15.7797

          k = 0.0833 0.0833 0.4167     band energies (ev):

   -44.6826 -21.3488 -21.2864 -21.2812 -13.5630  -6.0219  -4.9995  -4.6943
     1.3584   1.4996   1.7514   6.8633   8.0310   8.1060   8.3065   8.6485
     9.4222   9.5889  10.0014  10.1510  13.2552  14.6797  14.6912  15.7769

          k = 0.0833 0.2500 0.2500     band energies (ev):

   -44.6826 -21.3155 -21.3139 -21.2864 -13.5768  -5.7454  -4.9942  -4.9309
     1.2199   1.3239   1.7523   7.2798   7.8445   8.0256   8.4445   8.6352
     9.2199   9.9283  10.0220  10.4905  13.9095  14.0539  14.2827  16.3003

          k = 0.0833 0.2500 0.4167     band energies (ev):

   -44.6819 -21.3464 -21.3128 -21.2851 -13.5181  -5.7649  -4.9505  -4.8089
     1.2207   1.4192   1.6771   6.7728   7.3786   7.6787   8.1229   8.4913
     9.3429   9.7029   9.8970  10.4621  14.0280  14.7193  14.8335  16.3960

          k = 0.0833 0.4167 0.4167     band energies (ev):

   -44.6812 -21.3442 -21.3438 -21.2837 -13.4720  -5.4905  -4.9421  -4.8878
     1.1896   1.2390   1.6410   6.6016   6.8935   7.0164   8.1285   8.1466
     9.1410   9.9534  10.1239  10.8166  14.7309  14.7678  15.1508  16.5831

          k = 0.2500 0.2500 0.2500     band energies (ev):

   -44.6819 -21.3183 -21.3134 -21.3124 -13.5268  -5.5650  -4.9436  -4.9345
     1.0396   1.0412   1.8242   7.0392   7.7775   7.7864   8.3360   8.4958
     8.5033  10.2316  10.2412  10.2873  14.3970  14.4108  14.4238  17.5610

          k = 0.2500 0.2500 0.4167     band energies (ev):

   -44.6812 -21.3443 -21.3165 -21.3112 -13.4757  -5.4924  -4.8792  -4.8290
     0.8601   1.0698   1.5511   6.7486   7.3921   7.7470   7.8216   8.4943
     8.6745  10.0049  10.3518  10.3887  14.5258  14.9200  14.9680  17.5236

          k = 0.2500 0.4167 0.4167     band energies (ev):

   -44.6806 -21.3424 -21.3421 -21.3149 -13.4323  -5.2024  -4.8467  -4.8156
     0.7421   0.7970   1.1564   6.6178   7.0188   7.6071   7.8623   8.4324
     8.5331  10.2691  10.3890  10.8088  15.0498  15.0631  15.2790  17.8492

          k = 0.4167 0.4167 0.4167     band energies (ev):

   -44.6799 -21.3457 -21.3406 -21.3404 -13.3919  -4.8816  -4.7519  -4.7435
     0.4301   0.4320   0.6246   6.4902   7.0175   7.0247   8.3107   8.5932
     8.5969  10.7378  10.7431  10.8470  15.4132  15.4155  15.4211  18.3455

          k = 0.2500-0.0833 0.0833     band energies (ev):

   -44.6832 -21.3218 -21.2828 -21.2825 -13.6340  -5.8377  -5.0169  -4.9402
     1.3015   1.3223   1.6353   7.6238   8.2950   8.3779   8.8713   8.8775
     9.6350   9.7002  10.3991  10.3993  13.1696  13.9362  13.9484  15.7701

          k = 0.4167-0.0833 0.0833     band energies (ev):

   -44.6826 -21.3541 -21.2813 -21.2811 -13.5631  -6.0155  -4.9920  -4.7071
     1.3568   1.4983   1.7541   6.8499   8.0196   8.1013   8.3150   8.6528
     9.4103   9.5912  10.0364  10.1463  13.2341  14.6886  14.7000  15.7686

          k = 0.2500-0.2500 0.0833     band energies (ev):

   -44.6826 -21.3200 -21.3146 -21.2813 -13.5768  -5.7398  -5.0013  -4.9288
     1.2208   1.3227   1.7526   7.2784   7.8273   8.0334   8.4381   8.6265
     9.2464   9.9325  10.0137  10.4869  13.9150  14.0555  14.2876  16.2955

          k = 0.4167-0.2500 0.0833     band energies (ev):

   -44.6819 -21.3517 -21.3128 -21.2799 -13.5181  -5.7567  -4.9461  -4.8200
     1.2198   1.4208   1.6765   6.7629   7.3554   7.6954   8.1151   8.4834
     9.3656   9.7033   9.9079  10.4534  14.0248  14.7260  14.8388  16.3943

          k = 0.2500 0.4167 0.0833     band energies (ev):

   -44.6819 -21.3464 -21.3180 -21.2799 -13.5181  -5.7610  -4.9541  -4.8083
     1.2223   1.4184   1.6766   6.7732   7.3702   7.6780   8.1090   8.4920
     9.3571   9.7025   9.9044  10.4554  14.0388  14.7157  14.8374  16.3981

          k = 0.4167-0.4167 0.0833     band energies (ev):

   -44.6812 -21.3493 -21.3440 -21.2786 -13.4721  -5.4795  -4.9488  -4.8903
     1.1905   1.2403   1.6393   6.5989   6.8783   7.0186   8.1037   8.1498
     9.1457   9.9703  10.1424  10.8067  14.7328  14.7694  15.1548  16.5917

          k = 0.4167-0.2500 0.2500     band energies (ev):

   -44.6812 -21.3496 -21.3116 -21.3108 -13.4757  -5.4866  -4.8722  -4.8411
     0.8586   1.0722   1.5503   6.7404   7.3770   7.7528   7.8247   8.4978
     8.6804  10.0140  10.3535  10.3807  14.5209  14.9227  14.9715  17.5202

          k = 0.4167-0.4167 0.2500     band energies (ev):

   -44.6806 -21.3475 -21.3422 -21.3097 -13.4323  -5.1936  -4.8538  -4.8163
     0.7419   0.7982   1.1553   6.6149   7.0128   7.6013   7.8623   8.4306
     8.5343  10.2797  10.4028  10.7980  15.0477  15.0622  15.2827  17.8605

     highest occupied, lowest unoccupied level (ev):    10.8470   13.0846

!    total energy              =    -264.80608007 Ry
     Harris-Foulkes estimate   =    -264.80608007 Ry
     estimated scf accuracy    <          2.6E-10 Ry

     The total energy is the sum of the following terms:

     one-electron contribution =     -68.24390121 Ry
     hartree contribution      =      58.13944308 Ry
     xc contribution           =     -42.80599968 Ry
     ewald contribution        =    -211.89562325 Ry
     scf correction            =       0.00000098 Ry

     iteration # 31     ecut=   100.00 Ry     beta=0.60
     Davidson diagonalization with overlap
     ethr =  6.47E-13,  avg # of iterations =  5.2

     total cpu time spent up to now is       14.8 secs

     total energy              =    -264.80608007 Ry
     Harris-Foulkes estimate   =    -264.80608007 Ry
     estimated scf accuracy    <          2.7E-11 Ry

     iteration # 32     ecut=   100.00 Ry     beta=0.60
     Davidson diagonalization with overlap
     ethr =  1.00E-13,  avg # of iterations =  2.4

     total cpu time spent up to now is       15.2 secs

     total energy              =    -264.80608007 Ry
     Harris-Foulkes estimate   =    -264.80608007 Ry
     estimated scf accuracy    <          1.6E-12 Ry

     iteration # 33     ecut=   100.00 Ry     beta=0.60
     Davidson diagonalization with overlap
     ethr =  1.00E-13,  avg # of iterations =  1.0

     total cpu time spent up to now is       15.5 secs

     End of self-consistent calculation

          k = 0.0833 0.0833 0.0833 (  6850 PWs)   bands (ev):

   -44.6839 -21.2893 -21.2843 -21.2839 -13.7027  -5.7512  -5.0513  -5.0415
     1.2470   1.2483   1.4052   8.3813   8.6022   8.6037   9.3241   9.3301
     9.7668  10.3650  10.7035  10.7099  13.0846  13.1407  13.1523  15.7729

          k = 0.0833 0.0833 0.2500 (  6839 PWs)   bands (ev):

   -44.6833 -21.3167 -21.2878 -21.2827 -13.6340  -5.8427  -5.0244  -4.9281
     1.3027   1.3223   1.6341   7.6285   8.2984   8.3832   8.8650   8.8871
     9.6383   9.6868  10.3666  10.4246  13.1907  13.9230  13.9371  15.7797

          k = 0.0833 0.0833 0.4167 (  6839 PWs)   bands (ev):

   -44.6826 -21.3488 -21.2864 -21.2812 -13.5630  -6.0218  -4.9995  -4.6943
     1.3584   1.4995   1.7514   6.8633   8.0310   8.1060   8.3065   8.6485
     9.4222   9.5889  10.0014  10.1511  13.2552  14.6797  14.6912  15.7769

          k = 0.0833 0.2500 0.2500 (  6847 PWs)   bands (ev):

   -44.6826 -21.3155 -21.3140 -21.2864 -13.5768  -5.7454  -4.9942  -4.9309
     1.2198   1.3239   1.7523   7.2799   7.8445   8.0256   8.4445   8.6353
     9.2199   9.9284  10.0220  10.4905  13.9095  14.0539  14.2826  16.3003

          k = 0.0833 0.2500 0.4167 (  6833 PWs)   bands (ev):

   -44.6819 -21.3464 -21.3128 -21.2851 -13.5181  -5.7648  -4.9504  -4.8089
     1.2206   1.4191   1.6770   6.7729   7.3786   7.6788   8.1229   8.4913
     9.3429   9.7029   9.8970  10.4621  14.0280  14.7193  14.8335  16.3960

          k = 0.0833 0.4167 0.4167 (  6854 PWs)   bands (ev):

   -44.6812 -21.3442 -21.3438 -21.2838 -13.4721  -5.4905  -4.9421  -4.8878
     1.1895   1.2390   1.6409   6.6017   6.8935   7.0165   8.1285   8.1466
     9.1410   9.9535  10.1239  10.8166  14.7309  14.7678  15.1508  16.5831

          k = 0.2500 0.2500 0.2500 (  6881 PWs)   bands (ev):

   -44.6819 -21.3184 -21.3134 -21.3124 -13.5269  -5.5650  -4.9436  -4.9345
     1.0396   1.0412   1.8242   7.0392   7.7775   7.7864   8.3361   8.4958
     8.5033  10.2316  10.2412  10.2873  14.3970  14.4108  14.4238  17.5610

          k = 0.2500 0.2500 0.4167 (  6839 PWs)   bands (ev):

   -44.6812 -21.3443 -21.3165 -21.3112 -13.4757  -5.4924  -4.8792  -4.8290
     0.8601   1.0698   1.5511   6.7486   7.3921   7.7470   7.8217   8.4943
     8.6746  10.0049  10.3518  10.3887  14.5258  14.9200  14.9680  17.5236

          k = 0.2500 0.4167 0.4167 (  6851 PWs)   bands (ev):

   -44.6806 -21.3424 -21.3421 -21.3149 -13.4324  -5.2024  -4.8467  -4.8156
     0.7421   0.7969   1.1563   6.6178   7.0188   7.6071   7.8623   8.4324
     8.5331  10.2691  10.3890  10.8088  15.0498  15.0631  15.2790  17.8492

          k = 0.4167 0.4167 0.4167 (  6854 PWs)   bands (ev):

   -44.6799 -21.3457 -21.3406 -21.3404 -13.3919  -4.8816  -4.7519  -4.7435
     0.4300   0.4319   0.6245   6.4902   7.0175   7.0247   8.3107   8.5932
     8.5969  10.7378  10.7431  10.8470  15.4132  15.4155  15.4211  18.3454

          k = 0.2500-0.0833 0.0833 (  6839 PWs)   bands (ev):

   -44.6833 -21.3219 -21.2828 -21.2825 -13.6340  -5.8377  -5.0169  -4.9401
     1.3014   1.3223   1.6352   7.6238   8.2951   8.3779   8.8714   8.8775
     9.6351   9.7002  10.3991  10.3993  13.1696  13.9362  13.9484  15.7701

          k = 0.4167-0.0833 0.0833 (  6839 PWs)   bands (ev):

   -44.6826 -21.3541 -21.2813 -21.2811 -13.5631  -6.0155  -4.9920  -4.7071
     1.3568   1.4983   1.7541   6.8499   8.0196   8.1013   8.3150   8.6528
     9.4103   9.5912  10.0364  10.1463  13.2341  14.6886  14.7000  15.7686

          k = 0.2500-0.2500 0.0833 (  6847 PWs)   bands (ev):

   -44.6826 -21.3201 -21.3146 -21.2813 -13.5769  -5.7398  -5.0013  -4.9288
     1.2208   1.3227   1.7526   7.2784   7.8273   8.0334   8.4381   8.6266
     9.2464   9.9325  10.0137  10.4870  13.9150  14.0555  14.2876  16.2955

          k = 0.4167-0.2500 0.0833 (  6833 PWs)   bands (ev):

   -44.6819 -21.3517 -21.3128 -21.2799 -13.5182  -5.7567  -4.9461  -4.8200
     1.2198   1.4208   1.6765   6.7629   7.3554   7.6954   8.1151   8.4834
     9.3656   9.7033   9.9079  10.4534  14.0248  14.7260  14.8388  16.3943

          k = 0.2500 0.4167 0.0833 (  6833 PWs)   bands (ev):

   -44.6819 -21.3464 -21.3180 -21.2799 -13.5181  -5.7609  -4.9541  -4.8083
     1.2222   1.4184   1.6766   6.7732   7.3703   7.6780   8.1091   8.4920
     9.3571   9.7026   9.9044  10.4554  14.0388  14.7157  14.8374  16.3981

          k = 0.4167-0.4167 0.0833 (  6854 PWs)   bands (ev):

   -44.6812 -21.3493 -21.3440 -21.2786 -13.4721  -5.4795  -4.9488  -4.8902
     1.1905   1.2402   1.6393   6.5990   6.8783   7.0186   8.1037   8.1498
     9.1457   9.9703  10.1424  10.8067  14.7328  14.7694  15.1548  16.5917

          k = 0.4167-0.2500 0.2500 (  6839 PWs)   bands (ev):

   -44.6812 -21.3496 -21.3116 -21.3108 -13.4757  -5.4865  -4.8722  -4.8411
     0.8586   1.0722   1.5503   6.7404   7.3770   7.7528   7.8247   8.4978
     8.6804  10.0140  10.3535  10.3807  14.5209  14.9227  14.9715  17.5202

          k = 0.4167-0.4167 0.2500 (  6851 PWs)   bands (ev):

   -44.6806 -21.3475 -21.3423 -21.3097 -13.4324  -5.1936  -4.8538  -4.8162
     0.7419   0.7982   1.1553   6.6150   7.0129   7.6013   7.8623   8.4306
     8.5343  10.2797  10.4028  10.7980  15.0477  15.0622  15.2827  17.8605

     highest occupied, lowest unoccupied level (ev):    10.8470   13.0846

!    total energy              =    -264.80608007 Ry
     Harris-Foulkes estimate   =    -264.80608007 Ry
     estimated scf accuracy    <          5.4E-14 Ry

     The total energy is the sum of the following terms:

     one-electron contribution =     -68.24388287 Ry
     hartree contribution      =      58.13942203 Ry
     xc contribution           =     -42.80599598 Ry
     ewald contribution        =    -211.89562325 Ry

     convergence has been achieved in  33 iterations

     Forces acting on atoms (cartesian axes, Ry/au):

     atom    1 type  3   force =     0.00599416    0.00000000    0.00000000
     atom    2 type  2   force =    -0.00319699    0.00000000    0.00000000
     atom    3 type  1   force =    -0.00387021    0.00000000    0.00000000
     atom    4 type  1   force =     0.00053652    0.00000000    0.00000000
     atom    5 type  1   force =     0.00053652    0.00000000    0.00000000

     Total force =     0.007855     Total SCF correction =     0.000001


     Computing stress (Cartesian axis) and pressure

          total   stress  (Ry/bohr**3)                   (kbar)     P=   29.73
   0.00021272   0.00000000   0.00000000         31.29      0.00      0.00
   0.00000000   0.00019680   0.00000000          0.00     28.95      0.00
   0.00000000   0.00000000   0.00019680          0.00      0.00     28.95


     BFGS Geometry Optimization

     number of scf cycles    =   1
     number of bfgs steps    =   0

     enthalpy new            =    -264.8060800668 Ry

     new trust radius        =       0.0214107704 bohr
     new conv_thr            =            1.0E-12 Ry

     new unit-cell volume =    411.39738 a.u.^3 (    60.96280 Ang^3 )
     density =      6.35149 g/cm^3

CELL_PARAMETERS (alat=  7.40000000)
   1.005318078   0.000000000   0.000000000
   0.000000000   1.004919876   0.000000000
   0.000000000   0.000000000   1.004919876

ATOMIC_POSITIONS (crystal)
Ba       0.000810022   0.000000000   0.000000000
Ti       0.509567975   0.500000000   0.500000000
O       -0.000523001   0.500000000   0.500000000
O        0.500072502   0.000000000   0.500000000
O        0.500072502   0.500000000   0.000000000



     Writing output data file bto.save
     NEW-OLD atomic charge density approx. for the potential

     negative rho (up, down):  1.478E-08 0.000E+00
     extrapolated charge   40.43517, renormalised to   40.00000

     total cpu time spent up to now is       16.9 secs

     per-process dynamical memory:    78.0 Mb

     Self-consistent Calculation

     iteration #  1     ecut=   100.00 Ry     beta=0.60
     Davidson diagonalization with overlap
     c_bands:  1 eigenvalues not converged
     ethr =  1.00E-06,  avg # of iterations = 11.4

     total cpu time spent up to now is       18.0 secs

     total energy              =    -264.74452010 Ry
     Harris-Foulkes estimate   =    -264.16544899 Ry
     estimated scf accuracy    <       0.08294526 Ry

     iteration #  2     ecut=   100.00 Ry     beta=0.60
     Davidson diagonalization with overlap
     ethr =  2.07E-04,  avg # of iterations =  4.5

     total cpu time spent up to now is       18.6 secs

     total energy              =    -264.78433999 Ry
     Harris-Foulkes estimate   =    -264.83928643 Ry
     estimated scf accuracy    <       0.13036924 Ry

     iteration #  3     ecut=   100.00 Ry     beta=0.60
     Davidson diagonalization with overlap
     ethr =  2.07E-04,  avg # of iterations =  3.2

     total cpu time spent up to now is       19.0 secs

     total energy              =    -264.80374704 Ry
     Harris-Foulkes estimate   =    -264.81169560 Ry
     estimated scf accuracy    <       0.02530597 Ry

     iteration #  4     ecut=   100.00 Ry     beta=0.60
     Davidson diagonalization with overlap
     ethr =  6.33E-05,  avg # of iterations =  2.6

     total cpu time spent up to now is       19.4 secs

     total energy              =    -264.80602206 Ry
     Harris-Foulkes estimate   =    -264.80717838 Ry
     estimated scf accuracy    <       0.00199983 Ry

     iteration #  5     ecut=   100.00 Ry     beta=0.60
     Davidson diagonalization with overlap
     ethr =  5.00E-06,  avg # of iterations =  5.0

     total cpu time spent up to now is       19.9 secs

     total energy              =    -264.80670208 Ry
     Harris-Foulkes estimate   =    -264.80674902 Ry
     estimated scf accuracy    <       0.00018737 Ry

     iteration #  6     ecut=   100.00 Ry     beta=0.60
     Davidson diagonalization with overlap
     ethr =  4.68E-07,  avg # of iterations =  4.8

     total cpu time spent up to now is       20.4 secs

     total energy              =    -264.80673306 Ry
     Harris-Foulkes estimate   =    -264.80673753 Ry
     estimated scf accuracy    <       0.00001593 Ry

     iteration #  7     ecut=   100.00 Ry     beta=0.60
     Davidson diagonalization with overlap
     ethr =  3.98E-08,  avg # of iterations =  4.9

     total cpu time spent up to now is       20.9 secs

     total energy              =    -264.80674042 Ry
     Harris-Foulkes estimate   =    -264.80674075 Ry
     estimated scf accuracy    <       0.00000089 Ry

     iteration #  8     ecut=   100.00 Ry     beta=0.60
     Davidson diagonalization with overlap
     ethr =  2.23E-09,  avg # of iterations =  5.1

     total cpu time spent up to now is       21.4 secs

     total energy              =    -264.80674074 Ry
     Harris-Foulkes estimate   =    -264.80674077 Ry
     estimated scf accuracy    <       0.00000009 Ry

     iteration #  9     ecut=   100.00 Ry     beta=0.60
     Davidson diagonalization with overlap
     ethr =  2.33E-10,  avg # of iterations =  4.6

     total cpu time spent up to now is       21.9 secs

     total energy              =    -264.80674075 Ry
     Harris-Foulkes estimate   =    -264.80674077 Ry
     estimated scf accuracy    <       0.00000004 Ry

     iteration # 10     ecut=   100.00 Ry     beta=0.60
     Davidson diagonalization with overlap
     ethr =  9.88E-11,  avg # of iterations =  2.3

     total cpu time spent up to now is       22.3 secs

          k = 0.0829 0.0829 0.0829     band energies (ev):

   -44.9786 -21.5712 -21.5667 -21.5664 -13.9635  -5.9462  -5.2389  -5.2306
     0.9932   0.9937   1.1431   8.1473   8.3640   8.3643   9.1307   9.1354
     9.5659  10.1265  10.4615  10.4669  12.8212  12.8766  12.8871  15.4298

          k = 0.0829 0.0829 0.2488     band energies (ev):

   -44.9780 -21.5968 -21.5698 -21.5653 -13.8999  -6.0243  -5.2133  -5.1283
     1.0462   1.0632   1.3584   7.4170   8.0770   8.1653   8.6649   8.6900
     9.4377   9.4631  10.1317  10.1870  12.9234  13.6412  13.6541  15.4334

          k = 0.0829 0.0829 0.4146     band energies (ev):

   -44.9773 -21.6266 -21.5685 -21.5639 -13.8345  -6.1874  -5.1895  -4.9109
     1.0998   1.2315   1.4666   6.6729   7.8281   7.9045   8.1102   8.4466
     9.2219   9.3663   9.7728   9.9226  12.9856  14.3782  14.3882  15.4294

          k = 0.0829 0.2488 0.2488     band energies (ev):

   -44.9773 -21.5957 -21.5943 -21.5686 -13.8469  -5.9267  -5.1892  -5.1278
     0.9640   1.0660   1.4691   7.0804   7.6359   7.8308   8.2224   8.4460
     9.0067   9.7200   9.7942  10.2538  13.6262  13.7670  13.9942  15.9412

          k = 0.0829 0.2488 0.4146     band energies (ev):

   -44.9767 -21.6245 -21.5933 -21.5673 -13.7924  -5.9380  -5.1456  -5.0179
     0.9665   1.1528   1.3969   6.5837   7.1966   7.4756   7.9243   8.2897
     9.1214   9.4861   9.6800  10.2340  13.7409  14.4156  14.5301  16.0339

          k = 0.0829 0.4146 0.4146     band energies (ev):

   -44.9761 -21.6225 -21.6221 -21.5661 -13.7493  -5.6699  -5.1433  -5.0905
     0.9315   0.9805   1.3639   6.4090   6.7172   6.8342   7.9375   7.9645
     8.9082   9.7257   9.8918  10.5898  14.4261  14.4617  14.8409  16.2147

          k = 0.2487 0.2488 0.2488     band energies (ev):

   -44.9767 -21.5981 -21.5938 -21.5929 -13.8005  -5.7527  -5.1403  -5.1321
     0.7949   0.7971   1.5353   6.8493   7.5771   7.5847   8.1228   8.2885
     8.2953  10.0087  10.0131  10.0728  14.1013  14.1166  14.1274  17.1830

          k = 0.2487 0.2488 0.4146     band energies (ev):

   -44.9761 -21.6226 -21.5964 -21.5918 -13.7528  -5.6761  -5.0788  -5.0365
     0.6265   0.8216   1.2775   6.5572   7.2062   7.5468   7.6127   8.2695
     8.4597   9.7925  10.1256  10.1738  14.2247  14.6144  14.6568  17.1467

          k = 0.2487 0.4146 0.4146     band energies (ev):

   -44.9755 -21.6208 -21.6206 -21.5949 -13.7123  -5.3945  -5.0522  -5.0217
     0.5125   0.5616   0.9051   6.4203   6.8368   7.4034   7.6527   8.2147
     8.3069  10.0511  10.1661  10.5844  14.7361  14.7494  14.9634  17.4706

          k = 0.4145 0.4146 0.4146     band energies (ev):

   -44.9749 -21.6235 -21.6192 -21.6190 -13.6746  -5.0877  -4.9619  -4.9540
     0.2142   0.2170   0.3995   6.2881   6.8387   6.8427   8.0794   8.3533
     8.3549  10.5138  10.5202  10.6225  15.0914  15.0927  15.0976  18.0285

          k = 0.2487-0.0829 0.0829     band energies (ev):

   -44.9780 -21.6013 -21.5654 -21.5651 -13.9001  -6.0206  -5.2071  -5.1386
     1.0454   1.0636   1.3591   7.4135   8.0747   8.1618   8.6704   8.6829
     9.4370   9.4744  10.1610  10.1656  12.9046  13.6517  13.6624  15.4264

          k = 0.4145-0.0829 0.0829     band energies (ev):

   -44.9773 -21.6310 -21.5640 -21.5639 -13.8349  -6.1825  -5.1833  -4.9228
     1.0984   1.2307   1.4693   6.6640   7.8200   7.9020   8.1175   8.4509
     9.2132   9.3686   9.8062   9.9196  12.9667  14.3831  14.3930  15.4239

          k = 0.2487-0.2488 0.0829     band energies (ev):

   -44.9773 -21.5996 -21.5949 -21.5640 -13.8470  -5.9226  -5.1957  -5.1259
     0.9655   1.0654   1.4695   7.0797   7.6217   7.8376   8.2192   8.4394
     9.0318   9.7220   9.7880  10.2489  13.6311  13.7675  13.9972  15.9399

          k = 0.4145-0.2488 0.0829     band energies (ev):

   -44.9767 -21.6288 -21.5933 -21.5627 -13.7928  -5.9317  -5.1423  -5.0284
     0.9662   1.1553   1.3972   6.5775   7.1775   7.4905   7.9202   8.2846
     9.1429   9.4863   9.6895  10.2247  13.7383  14.4186  14.5320  16.0361

          k = 0.2487 0.4146 0.0829     band energies (ev):

   -44.9767 -21.6245 -21.5977 -21.5627 -13.7926  -5.9353  -5.1494  -5.0174
     0.9685   1.1527   1.3972   6.5840   7.1901   7.4752   7.9152   8.2914
     9.1344   9.4856   9.6852  10.2259  13.7493  14.4123  14.5328  16.0386

          k = 0.4145-0.4146 0.0829     band energies (ev):

   -44.9761 -21.6267 -21.6223 -21.5615 -13.7497  -5.6614  -5.1501  -5.0933
     0.9339   0.9828   1.3632   6.4078   6.7053   6.8380   7.9213   7.9665
     8.9132   9.7389   9.9062  10.5788  14.4267  14.4611  14.8422  16.2269

          k = 0.4145-0.2488 0.2488     band energies (ev):

   -44.9761 -21.6270 -21.5922 -21.5915 -13.7530  -5.6712  -5.0727  -5.0481
     0.6247   0.8249   1.2771   6.5525   7.1938   7.5529   7.6141   8.2736
     8.4648   9.8023  10.1252  10.1675  14.2214  14.6148  14.6577  17.1472

          k = 0.4145-0.4146 0.2488     band energies (ev):

   -44.9755 -21.6251 -21.6207 -21.5904 -13.7125  -5.3872  -5.0591  -5.0226
     0.5125   0.5640   0.9044   6.4190   6.8333   7.4001   7.6522   8.2136
     8.3085  10.0604  10.1776  10.5728  14.7339  14.7478  14.9649  17.4852

     highest occupied, lowest unoccupied level (ev):    10.6225   12.8212

!    total energy              =    -264.80674076 Ry
     Harris-Foulkes estimate   =    -264.80674076 Ry
     estimated scf accuracy    <          1.8E-09 Ry

     The total energy is the sum of the following terms:

     one-electron contribution =     -69.73294882 Ry
     hartree contribution      =      58.50379915 Ry
     xc contribution           =     -42.74847845 Ry
     ewald contribution        =    -210.82926268 Ry
     scf correction            =       0.00015004 Ry

     iteration # 11     ecut=   100.00 Ry     beta=0.60
     Davidson diagonalization with overlap
     ethr =  4.53E-12,  avg # of iterations =  4.9

     total cpu time spent up to now is       22.9 secs

     total energy              =    -264.80674076 Ry
     Harris-Foulkes estimate   =    -264.80674076 Ry
     estimated scf accuracy    <          8.4E-10 Ry

     iteration # 12     ecut=   100.00 Ry     beta=0.60
     Davidson diagonalization with overlap
     ethr =  2.09E-12,  avg # of iterations =  2.3

     total cpu time spent up to now is       23.2 secs

     total energy              =    -264.80674076 Ry
     Harris-Foulkes estimate   =    -264.80674076 Ry
     estimated scf accuracy    <          5.6E-11 Ry

     iteration # 13     ecut=   100.00 Ry     beta=0.60
     Davidson diagonalization with overlap
     ethr =  1.39E-13,  avg # of iterations =  4.1

     total cpu time spent up to now is       23.7 secs

     total energy              =    -264.80674076 Ry
     Harris-Foulkes estimate   =    -264.80674076 Ry
     estimated scf accuracy    <          4.3E-12 Ry

     iteration # 14     ecut=   100.00 Ry     beta=0.60
     Davidson diagonalization with overlap
     ethr =  1.00E-13,  avg # of iterations =  1.0

     total cpu time spent up to now is       24.0 secs

     End of self-consistent calculation

          k = 0.0829 0.0829 0.0829 (  6850 PWs)   bands (ev):

   -44.9785 -21.5711 -21.5667 -21.5664 -13.9635  -5.9462  -5.2388  -5.2305
     0.9932   0.9936   1.1430   8.1474   8.3641   8.3643   9.1307   9.1354
     9.5659  10.1266  10.4616  10.4669  12.8212  12.8767  12.8871  15.4298

          k = 0.0829 0.0829 0.2488 (  6839 PWs)   bands (ev):

   -44.9779 -21.5967 -21.5698 -21.5652 -13.9000  -6.0242  -5.2132  -5.1282
     1.0461   1.0632   1.3583   7.4171   8.0770   8.1654   8.6649   8.6901
     9.4378   9.4632  10.1318  10.1870  12.9234  13.6413  13.6542  15.4334

          k = 0.0829 0.0829 0.4146 (  6839 PWs)   bands (ev):

   -44.9773 -21.6266 -21.5685 -21.5639 -13.8346  -6.1873  -5.1894  -4.9108
     1.0997   1.2314   1.4666   6.6730   7.8282   7.9046   8.1103   8.4466
     9.2220   9.3664   9.7729   9.9226  12.9856  14.3783  14.3883  15.4295

          k = 0.0829 0.2488 0.2488 (  6847 PWs)   bands (ev):

   -44.9773 -21.5957 -21.5943 -21.5685 -13.8469  -5.9267  -5.1891  -5.1277
     0.9640   1.0659   1.4691   7.0805   7.6360   7.8309   8.2225   8.4460
     9.0068   9.7200   9.7942  10.2539  13.6262  13.7670  13.9943  15.9413

          k = 0.0829 0.2488 0.4146 (  6833 PWs)   bands (ev):

   -44.9767 -21.6244 -21.5932 -21.5672 -13.7925  -5.9380  -5.1455  -5.0178
     0.9665   1.1527   1.3969   6.5838   7.1966   7.4757   7.9243   8.2898
     9.1214   9.4862   9.6801  10.2340  13.7409  14.4157  14.5302  16.0339

          k = 0.0829 0.4146 0.4146 (  6854 PWs)   bands (ev):

   -44.9761 -21.6224 -21.6221 -21.5660 -13.7494  -5.6698  -5.1432  -5.0904
     0.9314   0.9804   1.3639   6.4090   6.7172   6.8342   7.9375   7.9645
     8.9083   9.7257   9.8919  10.5899  14.4261  14.4617  14.8409  16.2147

          k = 0.2487 0.2488 0.2488 (  6881 PWs)   bands (ev):

   -44.9767 -21.5980 -21.5937 -21.5929 -13.8005  -5.7527  -5.1402  -5.1320
     0.7948   0.7970   1.5353   6.8493   7.5772   7.5848   8.1229   8.2885
     8.2953  10.0088  10.0132  10.0729  14.1014  14.1167  14.1275  17.1831

          k = 0.2487 0.2488 0.4146 (  6839 PWs)   bands (ev):

   -44.9761 -21.6225 -21.5963 -21.5918 -13.7529  -5.6761  -5.0788  -5.0364
     0.6265   0.8216   1.2774   6.5573   7.2062   7.5469   7.6128   8.2696
     8.4598   9.7926  10.1256  10.1739  14.2248  14.6145  14.6568  17.1468

          k = 0.2487 0.4146 0.4146 (  6851 PWs)   bands (ev):

   -44.9755 -21.6208 -21.6205 -21.5949 -13.7124  -5.3944  -5.0521  -5.0216
     0.5125   0.5615   0.9051   6.4204   6.8369   7.4035   7.6528   8.2147
     8.3070  10.0511  10.1661  10.5845  14.7362  14.7494  14.9635  17.4706

          k = 0.4145 0.4146 0.4146 (  6854 PWs)   bands (ev):

   -44.9749 -21.6234 -21.6191 -21.6189 -13.6747  -5.0877  -4.9619  -4.9539
     0.2141   0.2169   0.3995   6.2882   6.8388   6.8428   8.0795   8.3534
     8.3550  10.5138  10.5203  10.6226  15.0914  15.0928  15.0977  18.0285

          k = 0.2487-0.0829 0.0829 (  6839 PWs)   bands (ev):

   -44.9779 -21.6012 -21.5653 -21.5651 -13.9002  -6.0206  -5.2070  -5.1385
     1.0453   1.0635   1.3590   7.4136   8.0747   8.1619   8.6705   8.6829
     9.4371   9.4744  10.1610  10.1657  12.9047  13.6517  13.6625  15.4265

          k = 0.4145-0.0829 0.0829 (  6839 PWs)   bands (ev):

   -44.9773 -21.6310 -21.5640 -21.5638 -13.8350  -6.1824  -5.1832  -4.9227
     1.0984   1.2307   1.4692   6.6640   7.8200   7.9021   8.1175   8.4510
     9.2132   9.3687   9.8063   9.9196  12.9667  14.3832  14.3931  15.4239

          k = 0.2487-0.2488 0.0829 (  6847 PWs)   bands (ev):

   -44.9773 -21.5996 -21.5949 -21.5640 -13.8471  -5.9226  -5.1956  -5.1258
     0.9654   1.0654   1.4694   7.0797   7.6217   7.8376   8.2192   8.4394
     9.0319   9.7221   9.7881  10.2489  13.6312  13.7675  13.9972  15.9400

          k = 0.4145-0.2488 0.0829 (  6833 PWs)   bands (ev):

   -44.9767 -21.6288 -21.5932 -21.5627 -13.7928  -5.9316  -5.1422  -5.0284
     0.9662   1.1552   1.3971   6.5775   7.1776   7.4905   7.9203   8.2846
     9.1429   9.4864   9.6895  10.2248  13.7384  14.4186  14.5321  16.0362

          k = 0.2487 0.4146 0.0829 (  6833 PWs)   bands (ev):

   -44.9767 -21.6244 -21.5977 -21.5627 -13.7926  -5.9352  -5.1493  -5.0173
     0.9685   1.1527   1.3972   6.5840   7.1901   7.4753   7.9153   8.2914
     9.1344   9.4857   9.6853  10.2259  13.7493  14.4123  14.5329  16.0387

          k = 0.4145-0.4146 0.0829 (  6854 PWs)   bands (ev):

   -44.9761 -21.6266 -21.6222 -21.5615 -13.7497  -5.6613  -5.1500  -5.0933
     0.9338   0.9827   1.3632   6.4079   6.7054   6.8381   7.9214   7.9665
     8.9133   9.7389   9.9063  10.5788  14.4267  14.4611  14.8422  16.2270

          k = 0.4145-0.2488 0.2488 (  6839 PWs)   bands (ev):

   -44.9761 -21.6269 -21.5922 -21.5915 -13.7531  -5.6711  -5.0726  -5.0480
     0.6247   0.8248   1.2771   6.5525   7.1939   7.5529   7.6142   8.2736
     8.4648   9.8024  10.1252  10.1676  14.2215  14.6148  14.6578  17.1473

          k = 0.4145-0.4146 0.2488 (  6851 PWs)   bands (ev):

   -44.9755 -21.6250 -21.6206 -21.5904 -13.7125  -5.3872  -5.0590  -5.0225
     0.5125   0.5639   0.9043   6.4191   6.8334   7.4001   7.6523   8.2137
     8.3086  10.0605  10.1776  10.5729  14.7339  14.7479  14.9649  17.4853

     highest occupied, lowest unoccupied level (ev):    10.6226   12.8212

!    total energy              =    -264.80674076 Ry
     Harris-Foulkes estimate   =    -264.80674076 Ry
     estimated scf accuracy    <          3.2E-13 Ry

     The total energy is the sum of the following terms:

     one-electron contribution =     -69.73280492 Ry
     hartree contribution      =      58.50380430 Ry
     xc contribution           =     -42.74847746 Ry
     ewald contribution        =    -210.82926268 Ry

     convergence has been achieved in  14 iterations

     Forces acting on atoms (cartesian axes, Ry/au):

     atom    1 type  3   force =     0.00461448    0.00000000    0.00000000
     atom    2 type  2   force =    -0.00121425    0.00000000    0.00000000
     atom    3 type  1   force =    -0.00420994    0.00000000    0.00000000
     atom    4 type  1   force =     0.00040486    0.00000000    0.00000000
     atom    5 type  1   force =     0.00040486    0.00000000    0.00000000

     Total force =     0.006389     Total SCF correction =     0.000000


     Computing stress (Cartesian axis) and pressure

          total   stress  (Ry/bohr**3)                   (kbar)     P=   -1.03
  -0.00000078   0.00000000   0.00000000         -0.11      0.00      0.00
   0.00000000  -0.00001015   0.00000000          0.00     -1.49      0.00
   0.00000000   0.00000000  -0.00001015          0.00      0.00     -1.49


     number of scf cycles    =   2
     number of bfgs steps    =   1

     enthalpy old            =    -264.8060800668 Ry
     enthalpy new            =    -264.8067407599 Ry

     CASE: enthalpy_new < enthalpy_old

     new trust radius        =       0.0048872015 bohr
     new conv_thr            =            4.6E-14 Ry

     new unit-cell volume =    411.38661 a.u.^3 (    60.96121 Ang^3 )
     density =      6.35165 g/cm^3

CELL_PARAMETERS (alat=  7.40000000)
   1.005476656   0.000000000   0.000000000
   0.000000000   1.004827473   0.000000000
   0.000000000   0.000000000   1.004827473

ATOMIC_POSITIONS (crystal)
Ba       0.001466961   0.000000000   0.000000000
Ti       0.509387767   0.500000000   0.500000000
O       -0.001115103   0.500000000   0.500000000
O        0.500130188   0.000000000   0.500000000
O        0.500130188   0.500000000   0.000000000



     Writing output data file bto.save
     NEW-OLD atomic charge density approx. for the potential
     extrapolated charge   39.99924, renormalised to   40.00000

     total cpu time spent up to now is       25.3 secs

     per-process dynamical memory:    78.0 Mb

     Self-consistent Calculation

     iteration #  1     ecut=   100.00 Ry     beta=0.60
     Davidson diagonalization with overlap
     ethr =  1.00E-06,  avg # of iterations =  4.0

     total cpu time spent up to now is       25.9 secs

     total energy              =    -264.80670483 Ry
     Harris-Foulkes estimate   =    -264.80804409 Ry
     estimated scf accuracy    <       0.00027903 Ry

     iteration #  2     ecut=   100.00 Ry     beta=0.60
     Davidson diagonalization with overlap
     ethr =  6.98E-07,  avg # of iterations =  2.2

     total cpu time spent up to now is       26.3 secs

     total energy              =    -264.80677504 Ry
     Harris-Foulkes estimate   =    -264.80678604 Ry
     estimated scf accuracy    <       0.00001922 Ry

     iteration #  3     ecut=   100.00 Ry     beta=0.60
     Davidson diagonalization with overlap
     ethr =  4.81E-08,  avg # of iterations =  2.6

     total cpu time spent up to now is       26.7 secs

     total energy              =    -264.80677948 Ry
     Harris-Foulkes estimate   =    -264.80677970 Ry
     estimated scf accuracy    <       0.00000093 Ry

     iteration #  4     ecut=   100.00 Ry     beta=0.60
     Davidson diagonalization with overlap
     ethr =  2.33E-09,  avg # of iterations =  4.3

     total cpu time spent up to now is       27.2 secs

     total energy              =    -264.80677958 Ry
     Harris-Foulkes estimate   =    -264.80677977 Ry
     estimated scf accuracy    <       0.00000040 Ry

     iteration #  5     ecut=   100.00 Ry     beta=0.60
     Davidson diagonalization with overlap
     ethr =  9.91E-10,  avg # of iterations =  3.4

     total cpu time spent up to now is       27.6 secs

     total energy              =    -264.80677968 Ry
     Harris-Foulkes estimate   =    -264.80677976 Ry
     estimated scf accuracy    <       0.00000022 Ry

     iteration #  6     ecut=   100.00 Ry     beta=0.60
     Davidson diagonalization with overlap
     ethr =  5.49E-10,  avg # of iterations =  2.9

     total cpu time spent up to now is       28.0 secs

     total energy              =    -264.80677972 Ry
     Harris-Foulkes estimate   =    -264.80677973 Ry
     estimated scf accuracy    <          5.6E-09 Ry

     iteration #  7     ecut=   100.00 Ry     beta=0.60
     Davidson diagonalization with overlap
     ethr =  1.39E-11,  avg # of iterations =  5.0

     total cpu time spent up to now is       28.6 secs

     total energy              =    -264.80677973 Ry
     Harris-Foulkes estimate   =    -264.80677973 Ry
     estimated scf accuracy    <          2.1E-09 Ry

     iteration #  8     ecut=   100.00 Ry     beta=0.60
     Davidson diagonalization with overlap
     ethr =  5.23E-12,  avg # of iterations =  2.5

     total cpu time spent up to now is       29.0 secs

     total energy              =    -264.80677973 Ry
     Harris-Foulkes estimate   =    -264.80677973 Ry
     estimated scf accuracy    <          2.9E-11 Ry

     iteration #  9     ecut=   100.00 Ry     beta=0.60
     Davidson diagonalization with overlap
     ethr =  1.00E-13,  avg # of iterations =  4.7

     total cpu time spent up to now is       29.6 secs

     total energy              =    -264.80677973 Ry
     Harris-Foulkes estimate   =    -264.80677973 Ry
     estimated scf accuracy    <          5.3E-12 Ry

     iteration # 10     ecut=   100.00 Ry     beta=0.60
     Davidson diagonalization with overlap
     ethr =  1.00E-13,  avg # of iterations =  1.0

     total cpu time spent up to now is       29.9 secs

          k = 0.0829 0.0829 0.0829     band energies (ev):

   -44.9772 -21.5701 -21.5655 -21.5651 -13.9631  -5.9457  -5.2383  -5.2305
     0.9938   0.9938   1.1434   8.1480   8.3648   8.3652   9.1307   9.1349
     9.5662  10.1261  10.4618  10.4671  12.8225  12.8783  12.8887  15.4309

          k = 0.0829 0.0829 0.2488     band energies (ev):

   -44.9766 -21.5955 -21.5688 -21.5640 -13.8996  -6.0237  -5.2128  -5.1281
     1.0465   1.0635   1.3588   7.4175   8.0776   8.1658   8.6647   8.6893
     9.4376   9.4634  10.1320  10.1871  12.9247  13.6431  13.6559  15.4347

          k = 0.0829 0.0829 0.4147     band energies (ev):

   -44.9760 -21.6254 -21.5675 -21.5627 -13.8341  -6.1867  -5.1890  -4.9105
     1.1001   1.2318   1.4670   6.6727   7.8286   7.9049   8.1100   8.4463
     9.2218   9.3666   9.7724   9.9230  12.9868  14.3804  14.3903  15.4307

          k = 0.0829 0.2488 0.2488     band energies (ev):

   -44.9760 -21.5945 -21.5931 -21.5675 -13.8465  -5.9259  -5.1888  -5.1274
     0.9641   1.0661   1.4695   7.0808   7.6366   7.8308   8.2222   8.4445
     9.0062   9.7210   9.7945  10.2547  13.6276  13.7690  13.9963  15.9416

          k = 0.0829 0.2488 0.4147     band energies (ev):

   -44.9754 -21.6233 -21.5920 -21.5662 -13.7920  -5.9372  -5.1450  -5.0173
     0.9666   1.1528   1.3970   6.5835   7.1960   7.4763   7.9234   8.2887
     9.1209   9.4869   9.6813  10.2348  13.7426  14.4178  14.5324  16.0341

          k = 0.0829 0.4147 0.4147     band energies (ev):

   -44.9747 -21.6213 -21.6209 -21.5650 -13.7489  -5.6688  -5.1427  -5.0898
     0.9312   0.9803   1.3640   6.4089   6.7164   6.8337   7.9363   7.9630
     8.9083   9.7272   9.8935  10.5910  14.4282  14.4640  14.8433  16.2141

          k = 0.2486 0.2488 0.2488     band energies (ev):

   -44.9754 -21.5969 -21.5926 -21.5917 -13.8001  -5.7523  -5.1399  -5.1318
     0.7950   0.7976   1.5357   6.8497   7.5781   7.5853   8.1229   8.2883
     8.2949  10.0098  10.0128  10.0731  14.1025  14.1181  14.1293  17.1833

          k = 0.2486 0.2488 0.4147     band energies (ev):

   -44.9748 -21.6214 -21.5952 -21.5906 -13.7524  -5.6756  -5.0784  -5.0360
     0.6270   0.8217   1.2778   6.5571   7.2061   7.5469   7.6140   8.2693
     8.4594   9.7928  10.1262  10.1742  14.2260  14.6165  14.6588  17.1476

          k = 0.2486 0.4147 0.4147     band energies (ev):

   -44.9741 -21.6196 -21.6194 -21.5938 -13.7119  -5.3938  -5.0516  -5.0211
     0.5127   0.5614   0.9054   6.4202   6.8363   7.4028   7.6535   8.2143
     8.3067  10.0516  10.1669  10.5855  14.7380  14.7513  14.9658  17.4699

          k = 0.4144 0.4147 0.4147     band energies (ev):

   -44.9735 -21.6223 -21.6180 -21.6178 -13.6742  -5.0873  -4.9615  -4.9535
     0.2142   0.2176   0.3999   6.2888   6.8398   6.8422   8.0795   8.3539
     8.3545  10.5136  10.5210  10.6229  15.0932  15.0943  15.0996  18.0282

          k = 0.2486-0.0829 0.0829     band energies (ev):

   -44.9766 -21.6001 -21.5641 -21.5639 -13.8999  -6.0206  -5.2070  -5.1379
     1.0459   1.0641   1.3594   7.4145   8.0760   8.1632   8.6703   8.6829
     9.4376   9.4747  10.1613  10.1663  12.9062  13.6524  13.6630  15.4289

          k = 0.4144-0.0829 0.0829     band energies (ev):

   -44.9760 -21.6298 -21.5628 -21.5626 -13.8347  -6.1825  -5.1833  -4.9223
     1.0988   1.2313   1.4698   6.6658   7.8222   7.9036   8.1168   8.4510
     9.2141   9.3691   9.8069   9.9205  12.9682  14.3833  14.3931  15.4263

          k = 0.2486-0.2488 0.0829     band energies (ev):

   -44.9760 -21.5985 -21.5937 -21.5627 -13.8467  -5.9224  -5.1953  -5.1256
     0.9659   1.0659   1.4699   7.0804   7.6228   7.8377   8.2203   8.4391
     9.0320   9.7222   9.7885  10.2490  13.6324  13.7687  13.9983  15.9422

          k = 0.4144-0.2488 0.0829     band energies (ev):

   -44.9754 -21.6277 -21.5920 -21.5615 -13.7925  -5.9317  -5.1421  -5.0281
     0.9666   1.1559   1.3977   6.5791   7.1794   7.4898   7.9216   8.2847
     9.1432   9.4868   9.6900  10.2250  13.7402  14.4188  14.5325  16.0387

          k = 0.2486 0.4147 0.0829     band energies (ev):

   -44.9754 -21.6233 -21.5966 -21.5615 -13.7922  -5.9350  -5.1490  -5.0169
     0.9690   1.1531   1.3978   6.5839   7.1903   7.4760   7.9165   8.2912
     9.1344   9.4859   9.6851  10.2257  13.7499  14.4144  14.5345  16.0406

          k = 0.4144-0.4147 0.0829     band energies (ev):

   -44.9748 -21.6255 -21.6211 -21.5603 -13.7494  -5.6614  -5.1497  -5.0930
     0.9345   0.9834   1.3638   6.4088   6.7061   6.8385   7.9237   7.9657
     8.9136   9.7389   9.9062  10.5787  14.4280  14.4621  14.8432  16.2294

          k = 0.4144-0.2488 0.2488     band energies (ev):

   -44.9748 -21.6258 -21.5910 -21.5903 -13.7527  -5.6710  -5.0724  -5.0478
     0.6249   0.8257   1.2776   6.5542   7.1950   7.5536   7.6140   8.2737
     8.4646   9.8033  10.1249  10.1681  14.2234  14.6156  14.6584  17.1504

          k = 0.4144-0.4147 0.2488     band energies (ev):

   -44.9741 -21.6239 -21.6195 -21.5892 -13.7121  -5.3870  -5.0588  -5.0222
     0.5129   0.5646   0.9048   6.4199   6.8341   7.4006   7.6529   8.2136
     8.3086  10.0608  10.1778  10.5728  14.7353  14.7494  14.9661  17.4878

     highest occupied, lowest unoccupied level (ev):    10.6229   12.8225

!    total energy              =    -264.80677973 Ry
     Harris-Foulkes estimate   =    -264.80677973 Ry
     estimated scf accuracy    <          3.8E-13 Ry

     The total energy is the sum of the following terms:

     one-electron contribution =     -69.73619712 Ry
     hartree contribution      =      58.50640808 Ry
     xc contribution           =     -42.74878556 Ry
     ewald contribution        =    -210.82820479 Ry
     scf correction            =      -0.00000035 Ry

     iteration # 11     ecut=   100.00 Ry     beta=0.60
     Davidson diagonalization with overlap
     ethr =  1.00E-13,  avg # of iterations =  1.0

     total cpu time spent up to now is       30.2 secs

     End of self-consistent calculation

          k = 0.0829 0.0829 0.0829 (  6850 PWs)   bands (ev):

   -44.9772 -21.5701 -21.5655 -21.5652 -13.9631  -5.9457  -5.2383  -5.2305
     0.9938   0.9938   1.1434   8.1480   8.3648   8.3652   9.1307   9.1349
     9.5662  10.1261  10.4618  10.4671  12.8225  12.8783  12.8887  15.4309

          k = 0.0829 0.0829 0.2488 (  6839 PWs)   bands (ev):

   -44.9766 -21.5955 -21.5688 -21.5640 -13.8996  -6.0237  -5.2128  -5.1281
     1.0465   1.0635   1.3588   7.4175   8.0776   8.1658   8.6647   8.6893
     9.4376   9.4634  10.1320  10.1871  12.9247  13.6431  13.6559  15.4347

          k = 0.0829 0.0829 0.4147 (  6839 PWs)   bands (ev):

   -44.9760 -21.6254 -21.5675 -21.5627 -13.8341  -6.1867  -5.1890  -4.9105
     1.1001   1.2318   1.4670   6.6727   7.8286   7.9049   8.1100   8.4463
     9.2218   9.3666   9.7724   9.9230  12.9868  14.3804  14.3903  15.4307

          k = 0.0829 0.2488 0.2488 (  6847 PWs)   bands (ev):

   -44.9760 -21.5945 -21.5931 -21.5675 -13.8465  -5.9259  -5.1888  -5.1274
     0.9641   1.0661   1.4695   7.0808   7.6366   7.8308   8.2222   8.4445
     9.0062   9.7210   9.7945  10.2547  13.6276  13.7690  13.9963  15.9416

          k = 0.0829 0.2488 0.4147 (  6833 PWs)   bands (ev):

   -44.9754 -21.6233 -21.5920 -21.5662 -13.7920  -5.9372  -5.1450  -5.0173
     0.9666   1.1528   1.3970   6.5835   7.1960   7.4763   7.9234   8.2887
     9.1209   9.4869   9.6813  10.2348  13.7426  14.4178  14.5324  16.0341

          k = 0.0829 0.4147 0.4147 (  6854 PWs)   bands (ev):

   -44.9747 -21.6213 -21.6209 -21.5650 -13.7489  -5.6688  -5.1427  -5.0898
     0.9312   0.9803   1.3640   6.4089   6.7164   6.8337   7.9363   7.9630
     8.9083   9.7272   9.8935  10.5910  14.4282  14.4640  14.8433  16.2141

          k = 0.2486 0.2488 0.2488 (  6881 PWs)   bands (ev):

   -44.9754 -21.5969 -21.5926 -21.5917 -13.8001  -5.7523  -5.1399  -5.1318
     0.7950   0.7976   1.5357   6.8497   7.5781   7.5853   8.1229   8.2883
     8.2949  10.0098  10.0128  10.0731  14.1025  14.1181  14.1293  17.1833

          k = 0.2486 0.2488 0.4147 (  6839 PWs)   bands (ev):

   -44.9748 -21.6214 -21.5952 -21.5906 -13.7524  -5.6756  -5.0784  -5.0360
     0.6270   0.8217   1.2778   6.5571   7.2061   7.5469   7.6140   8.2693
     8.4594   9.7928  10.1262  10.1742  14.2260  14.6165  14.6588  17.1476

          k = 0.2486 0.4147 0.4147 (  6851 PWs)   bands (ev):

   -44.9741 -21.6196 -21.6194 -21.5938 -13.7119  -5.3938  -5.0516  -5.0211
     0.5127   0.5614   0.9054   6.4202   6.8363   7.4028   7.6535   8.2143
     8.3067  10.0516  10.1669  10.5855  14.7380  14.7513  14.9658  17.4699

          k = 0.4144 0.4147 0.4147 (  6854 PWs)   bands (ev):

   -44.9735 -21.6223 -21.6180 -21.6178 -13.6742  -5.0873  -4.9615  -4.9535
     0.2142   0.2176   0.3999   6.2888   6.8398   6.8422   8.0795   8.3539
     8.3545  10.5136  10.5210  10.6229  15.0932  15.0943  15.0996  18.0282

          k = 0.2486-0.0829 0.0829 (  6839 PWs)   bands (ev):

   -44.9766 -21.6001 -21.5641 -21.5639 -13.8999  -6.0206  -5.2070  -5.1379
     1.0459   1.0641   1.3594   7.4145   8.0760   8.1632   8.6703   8.6829
     9.4376   9.4747  10.1613  10.1663  12.9062  13.6524  13.6630  15.4289

          k = 0.4144-0.0829 0.0829 (  6839 PWs)   bands (ev):

   -44.9760 -21.6298 -21.5628 -21.5626 -13.8347  -6.1825  -5.1833  -4.9223
     1.0988   1.2313   1.4698   6.6658   7.8222   7.9036   8.1168   8.4510
     9.2141   9.3691   9.8069   9.9205  12.9682  14.3833  14.3931  15.4263

          k = 0.2486-0.2488 0.0829 (  6847 PWs)   bands (ev):

   -44.9760 -21.5985 -21.5937 -21.5627 -13.8467  -5.9224  -5.1953  -5.1256
     0.9659   1.0659   1.4699   7.0804   7.6228   7.8377   8.2203   8.4391
     9.0320   9.7222   9.7885  10.2490  13.6324  13.7687  13.9983  15.9422

          k = 0.4144-0.2488 0.0829 (  6833 PWs)   bands (ev):

   -44.9754 -21.6277 -21.5920 -21.5615 -13.7925  -5.9317  -5.1421  -5.0281
     0.9666   1.1559   1.3977   6.5791   7.1794   7.4898   7.9216   8.2847
     9.1432   9.4868   9.6900  10.2250  13.7402  14.4188  14.5325  16.0387

          k = 0.2486 0.4147 0.0829 (  6833 PWs)   bands (ev):

   -44.9754 -21.6233 -21.5966 -21.5615 -13.7922  -5.9350  -5.1490  -5.0169
     0.9690   1.1531   1.3978   6.5839   7.1903   7.4760   7.9165   8.2912
     9.1344   9.4859   9.6851  10.2257  13.7499  14.4144  14.5345  16.0406

          k = 0.4144-0.4147 0.0829 (  6854 PWs)   bands (ev):

   -44.9748 -21.6255 -21.6211 -21.5603 -13.7494  -5.6614  -5.1497  -5.0930
     0.9345   0.9834   1.3638   6.4088   6.7061   6.8385   7.9237   7.9657
     8.9136   9.7389   9.9062  10.5787  14.4280  14.4621  14.8432  16.2294

          k = 0.4144-0.2488 0.2488 (  6839 PWs)   bands (ev):

   -44.9748 -21.6258 -21.5910 -21.5903 -13.7527  -5.6710  -5.0724  -5.0478
     0.6249   0.8257   1.2776   6.5542   7.1950   7.5536   7.6140   8.2737
     8.4646   9.8033  10.1249  10.1681  14.2234  14.6156  14.6584  17.1504

          k = 0.4144-0.4147 0.2488 (  6851 PWs)   bands (ev):

   -44.9741 -21.6239 -21.6195 -21.5892 -13.7121  -5.3870  -5.0588  -5.0222
     0.5129   0.5646   0.9048   6.4199   6.8341   7.4006   7.6529   8.2136
     8.3086  10.0608  10.1778  10.5728  14.7353  14.7494  14.9661  17.4878

     highest occupied, lowest unoccupied level (ev):    10.6229   12.8225

!    total energy              =    -264.80677973 Ry
     Harris-Foulkes estimate   =    -264.80677973 Ry
     estimated scf accuracy    <          1.4E-14 Ry

     The total energy is the sum of the following terms:

     one-electron contribution =     -69.73619776 Ry
     hartree contribution      =      58.50640843 Ry
     xc contribution           =     -42.74878562 Ry
     ewald contribution        =    -210.82820479 Ry

     convergence has been achieved in  11 iterations

     Forces acting on atoms (cartesian axes, Ry/au):

     atom    1 type  3   force =     0.00371898    0.00000000    0.00000000
     atom    2 type  2   force =    -0.00047246    0.00000000    0.00000000
     atom    3 type  1   force =    -0.00323557    0.00000000    0.00000000
     atom    4 type  1   force =    -0.00000547    0.00000000    0.00000000
     atom    5 type  1   force =    -0.00000547    0.00000000    0.00000000

     Total force =     0.004952     Total SCF correction =     0.000000


     Computing stress (Cartesian axis) and pressure

          total   stress  (Ry/bohr**3)                   (kbar)     P=   -0.88
  -0.00000120   0.00000000   0.00000000         -0.18      0.00      0.00
   0.00000000  -0.00000833   0.00000000          0.00     -1.23      0.00
   0.00000000   0.00000000  -0.00000833          0.00      0.00     -1.23


     number of scf cycles    =   3
     number of bfgs steps    =   2

     enthalpy old            =    -264.8067407599 Ry
     enthalpy new            =    -264.8067797321 Ry

     CASE: enthalpy_new < enthalpy_old

     new trust radius        =       0.0053767697 bohr
     new conv_thr            =            1.0E-14 Ry

     new unit-cell volume =    411.35358 a.u.^3 (    60.95631 Ang^3 )
     density =      6.35216 g/cm^3

CELL_PARAMETERS (alat=  7.40000000)
   1.005624662   0.000000000   0.000000000
   0.000000000   1.004713183   0.000000000
   0.000000000   0.000000000   1.004713183

ATOMIC_POSITIONS (crystal)
Ba       0.002189594   0.000000000   0.000000000
Ti       0.509279265   0.500000000   0.500000000
O       -0.001738928   0.500000000   0.500000000
O        0.500135035   0.000000000   0.500000000
O        0.500135035   0.500000000   0.000000000



     Writing output data file bto.save
     NEW-OLD atomic charge density approx. for the potential
     extrapolated charge   39.99767, renormalised to   40.00000

     total cpu time spent up to now is       31.2 secs

     per-process dynamical memory:    78.0 Mb

     Self-consistent Calculation

     iteration #  1     ecut=   100.00 Ry     beta=0.60
     Davidson diagonalization with overlap
     ethr =  1.00E-06,  avg # of iterations =  4.0

     total cpu time spent up to now is       31.8 secs

     total energy              =    -264.80671814 Ry
     Harris-Foulkes estimate   =    -264.81049224 Ry
     estimated scf accuracy    <       0.00034075 Ry

     iteration #  2     ecut=   100.00 Ry     beta=0.60
     Davidson diagonalization with overlap
     ethr =  8.52E-07,  avg # of iterations =  2.2

     total cpu time spent up to now is       32.2 secs

     total energy              =    -264.80680416 Ry
     Harris-Foulkes estimate   =    -264.80681870 Ry
     estimated scf accuracy    <       0.00002529 Ry

     iteration #  3     ecut=   100.00 Ry     beta=0.60
     Davidson diagonalization with overlap
[...]
     total energy              =    -264.80681640 Ry
     Harris-Foulkes estimate   =    -264.80816611 Ry
     estimated scf accuracy    <       0.00687323 Ry

     iteration # 25     ecut=   100.00 Ry     beta=0.60
     Davidson diagonalization with overlap
     ethr =  1.72E-05,  avg # of iterations =  2.7

     total cpu time spent up to now is      123.6 secs

     total energy              =    -264.80741217 Ry
     Harris-Foulkes estimate   =    -264.80742406 Ry
     estimated scf accuracy    <       0.00194736 Ry

     iteration # 26     ecut=   100.00 Ry     beta=0.60
     Davidson diagonalization with overlap
     ethr =  4.87E-06,  avg # of iterations =  3.8

     total cpu time spent up to now is      124.0 secs

     total energy              =    -264.80692511 Ry
     Harris-Foulkes estimate   =    -264.80757826 Ry
     estimated scf accuracy    <       0.00202971 Ry

     iteration # 27     ecut=   100.00 Ry     beta=0.60
     Davidson diagonalization with overlap
     ethr =  4.87E-06,  avg # of iterations =  3.4

     total cpu time spent up to now is      124.4 secs

     total energy              =    -264.80706101 Ry
     Harris-Foulkes estimate   =    -264.80716531 Ry
     estimated scf accuracy    <       0.00026088 Ry

     iteration # 28     ecut=   100.00 Ry     beta=0.60
     Davidson diagonalization with overlap
     ethr =  6.52E-07,  avg # of iterations =  5.1

     total cpu time spent up to now is      124.9 secs

     total energy              =    -264.80719144 Ry
     Harris-Foulkes estimate   =    -264.80720542 Ry
     estimated scf accuracy    <       0.00003963 Ry

     iteration # 29     ecut=   100.00 Ry     beta=0.60
     Davidson diagonalization with overlap
     ethr =  9.91E-08,  avg # of iterations =  4.2

     total cpu time spent up to now is      125.4 secs

     total energy              =    -264.80720001 Ry
     Harris-Foulkes estimate   =    -264.80720030 Ry
     estimated scf accuracy    <       0.00000060 Ry

     iteration # 30     ecut=   100.00 Ry     beta=0.60
     Davidson diagonalization with overlap
     ethr =  1.51E-09,  avg # of iterations =  4.9

     total cpu time spent up to now is      126.0 secs

          k = 0.0823 0.0831 0.0831     band energies (ev):

   -44.9727 -21.5954 -21.5613 -21.5610 -14.0318  -5.9887  -5.2958  -5.2590
     0.9230   0.9316   1.0762   8.1013   8.3040   8.3172   9.0228   9.0394
     9.4800   9.9614  10.3640  10.3737  12.8426  12.9732  13.0017  15.4696

          k = 0.0823 0.0831 0.2493     band energies (ev):

   -44.9721 -21.5942 -21.5917 -21.5598 -13.9680  -6.0652  -5.2639  -5.1619
     0.9759   0.9958   1.2874   7.3755   8.0157   8.1219   8.5796   8.6191
     9.3246   9.3756  10.0096  10.1236  13.0281  13.6457  13.6707  15.4850

          k = 0.0823 0.0831 0.4154     band energies (ev):

   -44.9714 -21.6225 -21.5926 -21.5584 -13.9024  -6.2268  -5.2381  -4.9458
     1.0321   1.1621   1.3858   6.6393   7.7779   7.8607   8.0468   8.3718
     9.1621   9.2798   9.5922   9.8623  13.0893  14.3779  14.4034  15.4706

          k = 0.0823 0.2493 0.2493     band energies (ev):

   -44.9714 -21.5932 -21.5904 -21.5895 -13.9147  -5.9705  -5.2157  -5.1771
     0.8846   0.9944   1.3931   7.0393   7.5887   7.7860   8.1633   8.3836
     8.8257   9.6405   9.7684  10.2201  13.6163  13.7978  14.0059  15.9331

          k = 0.0823 0.2493 0.4154     band energies (ev):

   -44.9708 -21.6203 -21.5915 -21.5882 -13.8600  -5.9810  -5.1851  -5.0500
     0.8882   1.0688   1.3147   6.5482   7.1490   7.4426   7.8639   8.2143
     8.9685   9.4294   9.6308  10.2122  13.7487  14.4329  14.5369  15.9869

          k = 0.0823 0.4154 0.4154     band energies (ev):

   -44.9702 -21.6183 -21.6179 -21.5901 -13.8166  -5.7199  -5.1683  -5.1221
     0.8356   0.8891   1.2831   6.3682   6.6693   6.8135   7.8664   7.8951
     8.8415   9.6498   9.8114  10.5796  14.4361  14.4864  14.8495  16.0850

          k = 0.2469 0.2493 0.2493     band energies (ev):

   -44.9709 -21.6198 -21.5892 -21.5882 -13.8715  -5.7971  -5.2045  -5.1612
     0.7189   0.7430   1.4594   6.8104   7.5031   7.5387   8.1026   8.2192
     8.2565   9.9272   9.9273  10.0428  14.0721  14.1179  14.1531  17.2071

          k = 0.2469 0.2493 0.4154     band energies (ev):

   -44.9703 -21.6188 -21.6178 -21.5871 -13.8234  -5.7259  -5.1340  -5.0672
     0.5686   0.7445   1.2041   6.5196   7.1619   7.4804   7.6111   8.2013
     8.3929   9.7149  10.0422  10.1425  14.2191  14.6117  14.6609  17.0949

          k = 0.2469 0.4154 0.4154     band energies (ev):

   -44.9696 -21.6173 -21.6165 -21.6161 -13.7824  -5.4573  -5.0809  -5.0619
     0.4472   0.4788   0.8397   6.3747   6.8169   7.3433   7.6298   8.1543
     8.2417   9.9608  10.0765  10.5735  14.7329  14.7508  14.9637  17.2819

          k = 0.4114 0.4154 0.4154     band energies (ev):

   -44.9691 -21.6429 -21.6152 -21.6150 -13.7476  -5.1511  -5.0254  -4.9868
     0.1435   0.1710   0.3468   6.2531   6.8229   6.8436   8.0203   8.2872
     8.3037  10.4148  10.4585  10.5752  15.0635  15.0651  15.0906  17.7954

          k = 0.2469-0.0831 0.0831     band energies (ev):

   -44.9722 -21.6232 -21.5600 -21.5598 -13.9722  -6.0595  -5.2368  -5.2104
     0.9785   1.0012   1.2875   7.3668   8.0185   8.1110   8.6008   8.6119
     9.3620   9.4286  10.0805  10.1174  12.9089  13.6885  13.7052  15.4712

          k = 0.4114-0.0831 0.0831     band energies (ev):

   -44.9716 -21.6507 -21.5588 -21.5586 -13.9110  -6.2141  -5.2144  -5.0151
     1.0260   1.1610   1.4088   6.6346   7.7611   7.8654   8.0916   8.3972
     9.1450   9.3095   9.7753   9.9085  12.9690  14.3670  14.3875  15.4693

          k = 0.2469-0.2493 0.0831     band energies (ev):

   -44.9715 -21.6214 -21.5903 -21.5586 -13.9186  -5.9626  -5.2578  -5.1637
     0.9024   1.0000   1.3968   7.0470   7.5160   7.8300   8.1743   8.3747
     8.9887   9.6294   9.7422  10.1648  13.6467  13.7931  13.9971  15.9811

          k = 0.4114-0.2493 0.0831     band energies (ev):

   -44.9710 -21.6484 -21.5887 -21.5575 -13.8680  -5.9639  -5.1813  -5.1136
     0.8949   1.1009   1.3284   6.5580   7.0889   7.5100   7.8859   8.2151
     9.1132   9.4311   9.6660  10.1367  13.7409  14.4079  14.5010  16.0738

          k = 0.2469 0.4154 0.0831     band energies (ev):

   -44.9709 -21.6207 -21.6193 -21.5573 -13.8636  -5.9795  -5.2128  -5.0494
     0.9114   1.0787   1.3284   6.5522   7.1302   7.4537   7.8570   8.2463
     9.0450   9.4259   9.6188  10.1351  13.7868  14.4129  14.5352  16.0751

          k = 0.4114-0.4154 0.0831     band energies (ev):

   -44.9703 -21.6462 -21.6184 -21.5562 -13.8241  -5.6996  -5.2285  -5.1342
     0.8699   0.9275   1.2951   6.3891   6.6416   6.8588   7.8371   7.9405
     8.8796   9.6826   9.8482  10.4804  14.4241  14.4586  14.8153  16.2569

          k = 0.4114-0.2493 0.2493     band energies (ev):

   -44.9703 -21.6465 -21.5876 -21.5869 -13.8275  -5.7041  -5.1406  -5.1045
     0.5528   0.7797   1.2086   6.5405   7.1054   7.5107   7.6186   8.2383
     8.4212   9.7953  10.0378  10.0863  14.2171  14.5802  14.6329  17.1663

          k = 0.4114-0.4154 0.2493     band energies (ev):

   -44.9697 -21.6446 -21.6168 -21.5858 -13.7862  -5.4290  -5.1377  -5.0606
     0.4470   0.5142   0.8421   6.3912   6.8286   7.3518   7.6127   8.1608
     8.2643  10.0036  10.1357  10.4732  14.7055  14.7399  14.9397  17.4617

     highest occupied, lowest unoccupied level (ev):    10.5796   12.8426

!    total energy              =    -264.80720073 Ry
     Harris-Foulkes estimate   =    -264.80720078 Ry
     estimated scf accuracy    <       0.00000016 Ry

     The total energy is the sum of the following terms:

     one-electron contribution =     -70.43348362 Ry
     hartree contribution      =      58.78705731 Ry
     xc contribution           =     -42.75058439 Ry
     ewald contribution        =    -210.40964633 Ry
     scf correction            =      -0.00054371 Ry

     iteration # 31     ecut=   100.00 Ry     beta=0.60
     Davidson diagonalization with overlap
     ethr =  3.94E-10,  avg # of iterations =  2.2

     total cpu time spent up to now is      126.3 secs

     total energy              =    -264.80720074 Ry
     Harris-Foulkes estimate   =    -264.80720075 Ry
     estimated scf accuracy    <       0.00000001 Ry

     iteration # 32     ecut=   100.00 Ry     beta=0.60
     Davidson diagonalization with overlap
     ethr =  3.24E-11,  avg # of iterations =  4.6

     total cpu time spent up to now is      126.9 secs

     total energy              =    -264.80720075 Ry
     Harris-Foulkes estimate   =    -264.80720075 Ry
     estimated scf accuracy    <          2.1E-09 Ry

     iteration # 33     ecut=   100.00 Ry     beta=0.60
     Davidson diagonalization with overlap
     ethr =  5.26E-12,  avg # of iterations =  1.8

     total cpu time spent up to now is      127.2 secs

     total energy              =    -264.80720075 Ry
     Harris-Foulkes estimate   =    -264.80720075 Ry
     estimated scf accuracy    <          5.8E-10 Ry

     iteration # 34     ecut=   100.00 Ry     beta=0.60
     Davidson diagonalization with overlap
     ethr =  1.45E-12,  avg # of iterations =  3.4

     total cpu time spent up to now is      127.7 secs

     total energy              =    -264.80720075 Ry
     Harris-Foulkes estimate   =    -264.80720075 Ry
     estimated scf accuracy    <          6.4E-12 Ry

     iteration # 35     ecut=   100.00 Ry     beta=0.60
     Davidson diagonalization with overlap
     ethr =  1.00E-13,  avg # of iterations =  4.6

     total cpu time spent up to now is      128.2 secs

     total energy              =    -264.80720075 Ry
     Harris-Foulkes estimate   =    -264.80720075 Ry
     estimated scf accuracy    <          7.3E-13 Ry

     iteration # 36     ecut=   100.00 Ry     beta=0.60
     Davidson diagonalization with overlap
     ethr =  1.00E-13,  avg # of iterations =  1.0

     total cpu time spent up to now is      128.5 secs

     total energy              =    -264.80720075 Ry
     Harris-Foulkes estimate   =    -264.80720075 Ry
     estimated scf accuracy    <          9.3E-14 Ry

     iteration # 37     ecut=   100.00 Ry     beta=0.60
     Davidson diagonalization with overlap
     ethr =  1.00E-13,  avg # of iterations =  1.0

     total cpu time spent up to now is      128.8 secs

     total energy              =    -264.80720075 Ry
     Harris-Foulkes estimate   =    -264.80720075 Ry
     estimated scf accuracy    <          1.9E-14 Ry

     iteration # 38     ecut=   100.00 Ry     beta=0.60
     Davidson diagonalization with overlap
     ethr =  1.00E-13,  avg # of iterations =  1.0

     total cpu time spent up to now is      129.1 secs

     End of self-consistent calculation

          k = 0.0823 0.0831 0.0831 (  6975 PWs)   bands (ev):

   -44.9736 -21.5962 -21.5621 -21.5618 -14.0327  -5.9883  -5.2953  -5.2586
     0.9223   0.9309   1.0755   8.1015   8.3043   8.3175   9.0232   9.0397
     9.4804   9.9617  10.3644  10.3740  12.8422  12.9727  13.0012  15.4689

          k = 0.0823 0.0831 0.2493 (  6965 PWs)   bands (ev):

   -44.9730 -21.5951 -21.5925 -21.5606 -13.9690  -6.0649  -5.2635  -5.1615
     0.9752   0.9950   1.2866   7.3757   8.0160   8.1222   8.5798   8.6194
     9.3250   9.3760  10.0099  10.1240  13.0277  13.6453  13.6703  15.4844

          k = 0.0823 0.0831 0.4154 (  6963 PWs)   bands (ev):

   -44.9723 -21.6233 -21.5934 -21.5593 -13.9034  -6.2264  -5.2377  -4.9454
     1.0313   1.1614   1.3850   6.6395   7.7781   7.8610   8.0471   8.3720
     9.1624   9.2801   9.5925   9.8627  13.0888  14.3775  14.4029  15.4701

          k = 0.0823 0.2493 0.2493 (  6961 PWs)   bands (ev):

   -44.9723 -21.5940 -21.5912 -21.5903 -13.9157  -5.9701  -5.2154  -5.1767
     0.8839   0.9936   1.3923   7.0395   7.5889   7.7862   8.1635   8.3838
     8.8260   9.6409   9.7687  10.2205  13.6158  13.7974  14.0054  15.9326

          k = 0.0823 0.2493 0.4154 (  6963 PWs)   bands (ev):

   -44.9717 -21.6211 -21.5924 -21.5891 -13.8610  -5.9806  -5.1847  -5.0497
     0.8875   1.0681   1.3140   6.5484   7.1492   7.4428   7.8641   8.2145
     8.9689   9.4297   9.6312  10.2126  13.7482  14.4325  14.5364  15.9864

          k = 0.0823 0.4154 0.4154 (  6975 PWs)   bands (ev):

   -44.9711 -21.6191 -21.6188 -21.5909 -13.8176  -5.7195  -5.1679  -5.1218
     0.8349   0.8884   1.2823   6.3685   6.6695   6.8137   7.8666   7.8953
     8.8418   9.6502   9.8118  10.5800  14.4357  14.4860  14.8489  16.0845

          k = 0.2469 0.2493 0.2493 (  6968 PWs)   bands (ev):

   -44.9718 -21.6206 -21.5900 -21.5890 -13.8725  -5.7967  -5.2040  -5.1608
     0.7182   0.7423   1.4586   6.8107   7.5034   7.5389   8.1029   8.2194
     8.2567   9.9275   9.9277  10.0432  14.0717  14.1174  14.1527  17.2066

          k = 0.2469 0.2493 0.4154 (  6979 PWs)   bands (ev):

   -44.9712 -21.6196 -21.6186 -21.5879 -13.8244  -5.7255  -5.1336  -5.0668
     0.5680   0.7439   1.2033   6.5198   7.1621   7.4806   7.6113   8.2014
     8.3931   9.7153  10.0426  10.1428  14.2186  14.6112  14.6605  17.0944

          k = 0.2469 0.4154 0.4154 (  6994 PWs)   bands (ev):

   -44.9705 -21.6181 -21.6173 -21.6169 -13.7834  -5.4568  -5.0805  -5.0615
     0.4466   0.4782   0.8390   6.3750   6.8171   7.3434   7.6300   8.1544
     8.2418   9.9612  10.0769  10.5739  14.7324  14.7504  14.9632  17.2815

          k = 0.4114 0.4154 0.4154 (  6964 PWs)   bands (ev):

   -44.9700 -21.6437 -21.6160 -21.6158 -13.7486  -5.1507  -5.0250  -4.9865
     0.1428   0.1704   0.3462   6.2534   6.8230   6.8438   8.0203   8.2872
     8.3037  10.4153  10.4589  10.5756  15.0630  15.0646  15.0901  17.7949

          k = 0.2469-0.0831 0.0831 (  6963 PWs)   bands (ev):

   -44.9731 -21.6240 -21.5609 -21.5606 -13.9732  -6.0591  -5.2364  -5.2099
     0.9778   1.0005   1.2867   7.3671   8.0187   8.1113   8.6010   8.6121
     9.3623   9.4289  10.0808  10.1178  12.9084  13.6881  13.7048  15.4706

          k = 0.4114-0.0831 0.0831 (  6978 PWs)   bands (ev):

   -44.9725 -21.6515 -21.5596 -21.5594 -13.9120  -6.2138  -5.2140  -5.0147
     1.0253   1.1602   1.4081   6.6349   7.7613   7.8657   8.0918   8.3973
     9.1453   9.3099   9.7756   9.9089  12.9686  14.3666  14.3870  15.4687

          k = 0.2469-0.2493 0.0831 (  6964 PWs)   bands (ev):

   -44.9724 -21.6222 -21.5911 -21.5595 -13.9196  -5.9622  -5.2573  -5.1633
     0.9017   0.9992   1.3961   7.0473   7.5162   7.8302   8.1746   8.3749
     8.9891   9.6297   9.7425  10.1651  13.6463  13.7927  13.9966  15.9805

          k = 0.4114-0.2493 0.0831 (  6972 PWs)   bands (ev):

   -44.9719 -21.6493 -21.5895 -21.5583 -13.8690  -5.9635  -5.1809  -5.1132
     0.8942   1.1002   1.3277   6.5583   7.0891   7.5102   7.8862   8.2153
     9.1135   9.4314   9.6663  10.1370  13.7405  14.4074  14.5005  16.0732

          k = 0.2469 0.4154 0.0831 (  6971 PWs)   bands (ev):

   -44.9718 -21.6215 -21.6201 -21.5582 -13.8646  -5.9791  -5.2124  -5.0490
     0.9107   1.0780   1.3277   6.5524   7.1304   7.4540   7.8573   8.2464
     9.0453   9.4262   9.6191  10.1355  13.7863  14.4124  14.5347  16.0746

          k = 0.4114-0.4154 0.0831 (  6985 PWs)   bands (ev):

   -44.9712 -21.6470 -21.6192 -21.5571 -13.8251  -5.6992  -5.2281  -5.1338
     0.8692   0.9268   1.2943   6.3893   6.6418   6.8589   7.8373   7.9407
     8.8799   9.6829   9.8485  10.4808  14.4237  14.4581  14.8148  16.2563

          k = 0.4114-0.2493 0.2493 (  6962 PWs)   bands (ev):

   -44.9712 -21.6473 -21.5884 -21.5877 -13.8285  -5.7037  -5.1402  -5.1041
     0.5521   0.7791   1.2079   6.5408   7.1056   7.5109   7.6188   8.2384
     8.4213   9.7957  10.0381  10.0867  14.2167  14.5797  14.6324  17.1658

          k = 0.4114-0.4154 0.2493 (  6977 PWs)   bands (ev):

   -44.9706 -21.6454 -21.6176 -21.5866 -13.7872  -5.4286  -5.1372  -5.0602
     0.4463   0.5136   0.8414   6.3915   6.8287   7.3519   7.6129   8.1609
     8.2644  10.0039  10.1360  10.4736  14.7050  14.7394  14.9392  17.4613

     highest occupied, lowest unoccupied level (ev):    10.5800   12.8422

!    total energy              =    -264.80720075 Ry
     Harris-Foulkes estimate   =    -264.80720075 Ry
     estimated scf accuracy    <          1.5E-15 Ry

     The total energy is the sum of the following terms:

     one-electron contribution =     -70.43403807 Ry
     hartree contribution      =      58.78703702 Ry
     xc contribution           =     -42.75055338 Ry
     ewald contribution        =    -210.40964633 Ry

     convergence has been achieved in  38 iterations

     Forces acting on atoms (cartesian axes, Ry/au):

     atom    1 type  3   force =    -0.00006153    0.00000000    0.00000000
     atom    2 type  2   force =    -0.00002943    0.00000000    0.00000000
     atom    3 type  1   force =    -0.00066904    0.00000000    0.00000000
     atom    4 type  1   force =     0.00038000    0.00000000    0.00000000
     atom    5 type  1   force =     0.00038000    0.00000000    0.00000000

     Total force =     0.000861     Total SCF correction =     0.000000


     Computing stress (Cartesian axis) and pressure

          total   stress  (Ry/bohr**3)                   (kbar)     P=    0.71
   0.00000512   0.00000000   0.00000000          0.75      0.00      0.00
   0.00000000   0.00000472   0.00000000          0.00      0.69      0.00
   0.00000000   0.00000000   0.00000472          0.00      0.00      0.69


     Writing output data file bto.save
 
     init_run     :      0.85s CPU      1.02s WALL (       2 calls)
     electrons    :    109.33s CPU    112.19s WALL (      16 calls)
     update_pot   :      5.15s CPU      5.83s WALL (      14 calls)
     forces       :      2.67s CPU      2.69s WALL (      16 calls)
     stress       :      5.41s CPU      5.43s WALL (      16 calls)

     Called by init_run:
     wfcinit      :      0.18s CPU      0.20s WALL (       2 calls)
     potinit      :      0.19s CPU      0.23s WALL (       2 calls)

     Called by electrons:
     c_bands      :     85.79s CPU     87.55s WALL (     252 calls)
     sum_band     :     17.12s CPU     17.44s WALL (     252 calls)
     v_of_rho     :      0.32s CPU      0.33s WALL (     268 calls)
     newd         :      5.57s CPU      5.61s WALL (     268 calls)
     mix_rho      :      0.35s CPU      0.36s WALL (     252 calls)

     Called by c_bands:
     init_us_2    :      1.18s CPU      1.20s WALL (    9684 calls)
     cegterg      :     80.49s CPU     82.08s WALL (    4536 calls)

     Called by sum_band:
     sum_band:bec :      0.02s CPU      0.05s WALL (    4536 calls)
     addusdens    :      6.31s CPU      6.34s WALL (     252 calls)

     Called by *egterg:
     h_psi        :     47.90s CPU     49.24s WALL (   18847 calls)
     s_psi        :      1.59s CPU      1.50s WALL (   18847 calls)
     g_psi        :      0.23s CPU      0.29s WALL (   14275 calls)
     cdiaghg      :     19.20s CPU     19.15s WALL (   18559 calls)

     Called by h_psi:
     h_psi:pot    :     47.81s CPU     48.99s WALL (   18847 calls)
     h_psi:calbec :      2.97s CPU      2.90s WALL (   18847 calls)
     vloc_psi     :     43.25s CPU     44.39s WALL (   18847 calls)
     add_vuspsi   :      1.57s CPU      1.64s WALL (   18847 calls)

     General routines
     calbec       :      4.16s CPU      4.04s WALL (   24823 calls)
     fft          :      1.28s CPU      1.31s WALL (    2442 calls)
     ffts         :      0.06s CPU      0.07s WALL (     520 calls)
     fftw         :     46.55s CPU     46.32s WALL (  710922 calls)
     interpolate  :      0.28s CPU      0.29s WALL (     520 calls)
     davcio       :      0.00s CPU      0.05s WALL (      36 calls)
 
     Parallel routines
     fft_scatter  :     27.21s CPU     25.25s WALL (  713884 calls)
 
     PWSCF        :  2m 4.77s CPU     2m 9.66s WALL

 
   This run was terminated on:  11:27:23   5Jan2018            

=------------------------------------------------------------------------------=
   JOB DONE.
=------------------------------------------------------------------------------=
