
     Program PWSCF v.6.1 (svn rev. 13369) starts on  5Jan2018 at 14:10:24 

     This program is part of the open-source Quantum ESPRESSO suite
     for quantum simulation of materials; please cite
         "P. Giannozzi et al., J. Phys.:Condens. Matter 21 395502 (2009);
          URL http://www.quantum-espresso.org", 
     in publications or presentations arising from this work. More details at
     http://www.quantum-espresso.org/quote

     Parallel version (MPI), running on    28 processors
     R & G space division:  proc/nbgrp/npool/nimage =      28
     Waiting for input...
     Reading input from standard input

     Current dimensions of program PWSCF are:
     Max number of different atomic species (ntypx) = 10
     Max number of k-points (npk) =  40000
     Max angular momentum in pseudopotentials (lmaxx) =  3

     Subspace diagonalization in iterative solution of the eigenvalue problem:
     a serial algorithm will be used

 
     Parallelization info
     --------------------
     sticks:   dense  smooth     PW     G-vecs:    dense   smooth      PW
     Min         125      62     17                 5539     1956     291
     Max         126      63     18                 5541     1961     296
     Sum        3505    1749    489               155139    54795    8217
 

     Title: 
     cubic BaTiO3 at 7.40 lattice parameter. xc=PZ                              


     bravais-lattice index     =            1
     lattice parameter (alat)  =       7.4000  a.u.
     unit-cell volume          =     405.2240 (a.u.)^3
     number of atoms/cell      =            5
     number of atomic types    =            3
     number of electrons       =        40.00
     number of Kohn-Sham states=           24
     kinetic-energy cutoff     =     100.0000  Ry
     charge density cutoff     =     800.0000  Ry
     convergence threshold     =      1.0E-12
     mixing beta               =       0.6000
     number of iterations used =            8  plain     mixing
     Exchange-correlation      = SLA-PZ-NOGX-NOGC ( 1  1  0  0 0 0)
     nstep                     =           50


     celldm(1)=   7.400000  celldm(2)=   0.000000  celldm(3)=   0.000000
     celldm(4)=   0.000000  celldm(5)=   0.000000  celldm(6)=   0.000000

     crystal axes: (cart. coord. in units of alat)
               a(1) = (   1.000000   0.000000   0.000000 )  
               a(2) = (   0.000000   1.000000   0.000000 )  
               a(3) = (   0.000000   0.000000   1.000000 )  

     reciprocal axes: (cart. coord. in units 2 pi/alat)
               b(1) = (  1.000000  0.000000  0.000000 )  
               b(2) = (  0.000000  1.000000  0.000000 )  
               b(3) = (  0.000000  0.000000  1.000000 )  


     PseudoPot. # 1 for O  read from file:
     ../../PSP_DIR/O.pz-van_ak.UPF
     MD5 check sum: d814fcb982dd9af4fc6452aae6bb9318
     Pseudo is Ultrasoft, Zval =  6.0
     Generated by new atomic code, or converted to UPF format
     Using radial grid of  737 points,  4 beta functions with: 
                l(1) =   0
                l(2) =   0
                l(3) =   1
                l(4) =   1
     Q(r) pseudized with  8 coefficients,  rinner =    0.800   0.800   0.800


     PseudoPot. # 2 for Ti read from file:
     ../../PSP_DIR/Ti.pz-sp-van_ak.UPF
     MD5 check sum: 545d0e6e05332b8871a8093f427cb0ca
     Pseudo is Ultrasoft, Zval = 12.0
     Generated by new atomic code, or converted to UPF format
     Using radial grid of  851 points,  6 beta functions with: 
                l(1) =   0
                l(2) =   0
                l(3) =   1
                l(4) =   1
                l(5) =   2
                l(6) =   2
     Q(r) pseudized with  8 coefficients,  rinner =    1.000   1.000   1.000
                                                       1.000   1.000

     PseudoPot. # 3 for Ba read from file:
     ../../PSP_DIR/Ba.pz-sp-hgh.UPF
     MD5 check sum: 155c4e4bbe33bd45901c985a874b3acf
     Pseudo is Norm-conserving, Zval = 10.0
     Generated in analytical, separable form
     Using radial grid of 1251 points,  6 beta functions with: 
                l(1) =   0
                l(2) =   0
                l(3) =   1
                l(4) =   1
                l(5) =   2
                l(6) =   3

     atomic species   valence    mass     pseudopotential
        O              6.00    15.99000     O ( 1.00)
        Ti            12.00    47.88000     Ti( 1.00)
        Ba            10.00   137.33000     Ba( 1.00)

      8 Sym. Ops. (no inversion) found



   Cartesian axes

     site n.     atom                  positions (alat units)
         1           Ba  tau(   1) = (   0.0000000   0.0000000   0.0000000  )
         2           Ti  tau(   2) = (   0.5300000   0.5000000   0.5000000  )
         3           O   tau(   3) = (   0.0000000   0.5000000   0.5000000  )
         4           O   tau(   4) = (   0.5000000   0.0000000   0.5000000  )
         5           O   tau(   5) = (   0.5000000   0.5000000   0.0000000  )

     number of k points=    18
                       cart. coord. in units 2pi/alat
        k(    1) = (   0.0833333   0.0833333   0.0833333), wk =   0.0740741
        k(    2) = (   0.0833333   0.0833333   0.2500000), wk =   0.1481481
        k(    3) = (   0.0833333   0.0833333   0.4166667), wk =   0.1481481
        k(    4) = (   0.0833333   0.2500000   0.2500000), wk =   0.0740741
        k(    5) = (   0.0833333   0.2500000   0.4166667), wk =   0.1481481
        k(    6) = (   0.0833333   0.4166667   0.4166667), wk =   0.0740741
        k(    7) = (   0.2500000   0.2500000   0.2500000), wk =   0.0740741
        k(    8) = (   0.2500000   0.2500000   0.4166667), wk =   0.1481481
        k(    9) = (   0.2500000   0.4166667   0.4166667), wk =   0.0740741
        k(   10) = (   0.4166667   0.4166667   0.4166667), wk =   0.0740741
        k(   11) = (   0.2500000  -0.0833333   0.0833333), wk =   0.0740741
        k(   12) = (   0.4166667  -0.0833333   0.0833333), wk =   0.0740741
        k(   13) = (   0.2500000  -0.2500000   0.0833333), wk =   0.1481481
        k(   14) = (   0.4166667  -0.2500000   0.0833333), wk =   0.1481481
        k(   15) = (   0.2500000   0.4166667   0.0833333), wk =   0.1481481
        k(   16) = (   0.4166667  -0.4166667   0.0833333), wk =   0.1481481
        k(   17) = (   0.4166667  -0.2500000   0.2500000), wk =   0.0740741
        k(   18) = (   0.4166667  -0.4166667   0.2500000), wk =   0.1481481

     Dense  grid:   155139 G-vectors     FFT dimensions: (  72,  72,  72)

     Smooth grid:    54795 G-vectors     FFT dimensions: (  48,  48,  48)

     Estimated max dynamical RAM per process >       6.38MB

     Estimated total allocated dynamical RAM >     178.54MB

     Initial potential from superposition of free atoms

     starting charge   28.99996, renormalised to   40.00000
     Starting wfc are   22 randomized atomic wfcs +    2 random wfc

     total cpu time spent up to now is        1.1 secs

     per-process dynamical memory:    58.6 Mb

     Self-consistent Calculation

     iteration #  1     ecut=   100.00 Ry     beta=0.60
     Davidson diagonalization with overlap
     ethr =  1.00E-02,  avg # of iterations = 12.0

     total cpu time spent up to now is        2.5 secs

     total energy              =      55.71784614 Ry
     Harris-Foulkes estimate   =    -388.49384812 Ry
     estimated scf accuracy    <     586.16550566 Ry

     iteration #  2     ecut=   100.00 Ry     beta=0.60
     Davidson diagonalization with overlap
     ethr =  1.00E-02,  avg # of iterations =  8.3

     total cpu time spent up to now is        3.5 secs

     total energy              =    -285.95376981 Ry
     Harris-Foulkes estimate   =    -456.57578951 Ry
     estimated scf accuracy    <     315.66336186 Ry

     iteration #  3     ecut=   100.00 Ry     beta=0.60
     Davidson diagonalization with overlap
     ethr =  1.00E-02,  avg # of iterations =  3.7

     total cpu time spent up to now is        4.1 secs

     total energy              =    -277.63792852 Ry
     Harris-Foulkes estimate   =    -302.79987362 Ry
     estimated scf accuracy    <      85.00050302 Ry

     iteration #  4     ecut=   100.00 Ry     beta=0.60
     Davidson diagonalization with overlap
     ethr =  1.00E-02,  avg # of iterations =  4.3

     total cpu time spent up to now is        4.6 secs

     total energy              =    -272.52934764 Ry
     Harris-Foulkes estimate   =    -279.38560771 Ry
     estimated scf accuracy    <      40.70628498 Ry

     iteration #  5     ecut=   100.00 Ry     beta=0.60
     Davidson diagonalization with overlap
     ethr =  1.00E-02,  avg # of iterations =  3.2

     total cpu time spent up to now is        4.9 secs

     total energy              =    -273.12223485 Ry
     Harris-Foulkes estimate   =    -273.02812555 Ry
     estimated scf accuracy    <      20.94528224 Ry

     iteration #  6     ecut=   100.00 Ry     beta=0.60
     Davidson diagonalization with overlap
     ethr =  1.00E-02,  avg # of iterations =  1.2

     total cpu time spent up to now is        5.2 secs

     total energy              =    -272.17914458 Ry
     Harris-Foulkes estimate   =    -273.15069012 Ry
     estimated scf accuracy    <      22.50727658 Ry

     iteration #  7     ecut=   100.00 Ry     beta=0.60
     Davidson diagonalization with overlap
     ethr =  1.00E-02,  avg # of iterations =  1.0

     total cpu time spent up to now is        5.5 secs

     total energy              =    -269.20489515 Ry
     Harris-Foulkes estimate   =    -272.19186229 Ry
     estimated scf accuracy    <      20.14888326 Ry

     iteration #  8     ecut=   100.00 Ry     beta=0.60
     Davidson diagonalization with overlap
     ethr =  1.00E-02,  avg # of iterations =  2.3

     total cpu time spent up to now is        6.0 secs

     total energy              =    -268.48119714 Ry
     Harris-Foulkes estimate   =    -269.41717357 Ry
     estimated scf accuracy    <      11.12881475 Ry

     iteration #  9     ecut=   100.00 Ry     beta=0.60
     Davidson diagonalization with overlap
     ethr =  1.00E-02,  avg # of iterations =  1.4

     negative rho (up, down):  2.967E-08 0.000E+00

     total cpu time spent up to now is        6.3 secs

     total energy              =    -265.31068594 Ry
     Harris-Foulkes estimate   =    -268.60771355 Ry
     estimated scf accuracy    <       8.66372184 Ry

     iteration # 10     ecut=   100.00 Ry     beta=0.60
     Davidson diagonalization with overlap
     ethr =  1.00E-02,  avg # of iterations =  3.0

     negative rho (up, down):  5.992E-07 0.000E+00

     total cpu time spent up to now is        6.8 secs

          k = 0.0833 0.0833 0.0833     band energies (ev):

   -54.8302 -31.1944 -31.1933 -31.0670  -9.8855  -8.9005  -8.6545  -3.9187
     3.3099   3.3755   3.6469   4.1916   4.2353   4.5314   5.6164   5.8016
     6.5468   6.7153   7.0824   7.1957   7.6508   7.9024  10.5482  11.0196

          k = 0.0833 0.0833 0.2500     band energies (ev):

   -54.8299 -31.2065 -31.1940 -31.0667  -9.6443  -8.8179  -8.6322  -4.0876
     2.0635   3.2441   3.4851   3.8481   4.1267   4.5967   5.7059   6.0783
     6.7804   6.9303   7.2943   7.3384   7.8395   9.0327   9.8077  10.6048

          k = 0.0833 0.0833 0.4167     band energies (ev):

   -54.8287 -31.2184 -31.1933 -31.0660  -9.3815  -8.7118  -8.6332  -4.2323
     1.0013   3.0683   3.2820   3.7211   4.1311   4.6261   6.0999   6.3479
     6.6925   7.0289   7.4749   7.7114   7.8633   9.1927   9.8723  10.1866

          k = 0.0833 0.2500 0.2500     band energies (ev):

   -54.8298 -31.2062 -31.2058 -31.0656  -9.3907  -8.7301  -8.6163  -4.2155
     1.8469   2.4176   3.1909   3.5028   3.6732   4.6455   5.7288   6.4423
     7.0118   7.0918   7.3545   7.4976   8.4411   9.4172   9.7885  10.3769

          k = 0.0833 0.2500 0.4167     band energies (ev):

   -54.8291 -31.2178 -31.2051 -31.0649  -9.1150  -8.6392  -8.5985  -4.3363
     0.9760   2.2837   2.8450   3.3258   3.6036   4.6514   5.9033   6.3694
     6.9932   7.1380   7.5652   7.8995   8.4779   9.5976  10.0809  10.5862

          k = 0.0833 0.4167 0.4167     band energies (ev):

   -54.8289 -31.2169 -31.2167 -31.0641  -8.8543  -8.5490  -8.5412  -4.4424
     0.7682   1.4010   2.7254   3.2563   3.2716   4.6806   5.6495   5.8312
     7.5633   7.6198   7.8504   7.8812   8.5803   9.4215  10.5239  10.7549

          k = 0.2500 0.2500 0.2500     band energies (ev):

   -54.8295 -31.2055 -31.2047 -31.0778  -9.2187  -8.7145  -8.4413  -4.2651
     1.8503   1.9904   2.9032   3.0775   3.1059   3.7476   6.2316   6.3919
     7.1141   7.1884   7.5123   7.6473   9.1788   9.7082  10.0023  10.7894

          k = 0.2500 0.2500 0.4167     band energies (ev):

   -54.8292 -31.2172 -31.2047 -31.0771  -8.9679  -8.5839  -8.4336  -4.3246
     0.9655   1.9998   2.4694   2.8599   3.0283   3.4393   6.3394   6.7084
     6.8785   7.2904   7.5681   7.8511   9.7836   9.8928  10.6714  10.8323

          k = 0.2500 0.4167 0.4167     band energies (ev):

   -54.8286 -31.2167 -31.2165 -31.0767  -8.6374  -8.5189  -8.4325  -4.3296
     0.7737   1.2927   2.2493   2.5527   2.6852   3.0591   6.5551   6.6585
     7.0251   7.6181   7.6734   7.7554  10.2593  10.3796  11.0100  11.1127

          k = 0.4167 0.4167 0.4167     band energies (ev):

   -54.8277 -31.2163 -31.2160 -31.0886  -8.5518  -8.4962  -8.1482  -4.2049
     0.7764   0.9380   1.8946   2.0805   2.1072   2.2609   6.7448   6.9716
     6.9871   7.6359   7.9147   7.9255  10.9497  11.3215  11.3363  11.4837

          k = 0.2500-0.0833 0.0833     band energies (ev):

   -54.8294 -31.1940 -31.1939 -31.0788  -9.6998  -8.8907  -8.5017  -4.0805
     2.3107   3.1786   3.3617   4.0243   4.0361   4.4891   5.6265   5.9991
     6.6461   6.7407   7.3445   7.6064   7.6907   9.2364   9.6100  10.8001

          k = 0.4167-0.0833 0.0833     band energies (ev):

   -54.8289 -31.1934 -31.1927 -31.0909  -9.5084  -8.8809  -8.3322  -4.2173
     1.2237   3.0159   3.2004   3.9513   3.9982   4.4915   6.1191   6.1400
     6.6231   6.6874   7.4529   7.8258   7.9598   8.8283  10.2032  10.4769

          k = 0.2500-0.2500 0.0833     band energies (ev):

   -54.8296 -31.2059 -31.1933 -31.0784  -9.4747  -8.7940  -8.4650  -4.2053
     1.9218   2.5702   3.2664   3.4178   3.6317   4.4609   5.4306   6.3605
     6.8298   7.1833   7.5439   7.7745   8.2536   9.3298   9.9820  10.5978

          k = 0.4167-0.2500 0.0833     band energies (ev):

   -54.8287 -31.2054 -31.1925 -31.0902  -9.3147  -8.7657  -8.2643  -4.3156
     1.1802   2.2372   3.0377   3.2446   3.5341   4.4477   5.5454   6.0064
     7.0123   7.2117   7.8650   8.1974   8.2754   9.4656  10.1516  10.7200

          k = 0.2500 0.4167 0.0833     band energies (ev):

   -54.8293 -31.2178 -31.1924 -31.0779  -9.2601  -8.6381  -8.4501  -4.3233
     0.9859   2.5275   2.9235   3.2714   3.4774   4.4714   5.5517   5.9956
     7.2463   7.4670   7.6934   7.9966   8.3573   9.6290  10.2298  10.4567

          k = 0.4167-0.4167 0.0833     band energies (ev):

   -54.8288 -31.2175 -31.1918 -31.0897  -9.1703  -8.5667  -8.1964  -4.4167
     0.8698   1.5132   2.8585   3.1477   3.2300   4.4455   5.2480   5.4962
     7.6254   7.7602   8.0578   8.2326   8.4771   9.7449  10.2257  10.6036

          k = 0.4167-0.2500 0.2500     band energies (ev):

   -54.8287 -31.2052 -31.2050 -31.0896  -9.0647  -8.6988  -8.2167  -4.3140
     1.1601   1.8529   2.6508   2.6703   2.9840   3.4298   6.2688   6.6357
     6.7626   7.0077   7.8013   8.1899   9.6396   9.7914  10.4929  11.1064

          k = 0.4167-0.4167 0.2500     band energies (ev):

   -54.8281 -31.2171 -31.2042 -31.0886  -8.8743  -8.5371  -8.1707  -4.3154
     0.8731   1.3369   2.3025   2.4358   2.6313   2.9988   6.2417   6.4190
     7.2275   7.5550   7.9026   7.9820  10.1610  10.4037  10.8440  11.1067

     highest occupied, lowest unoccupied level (ev):     8.2326    7.6508

!    total energy              =    -267.88485378 Ry
     Harris-Foulkes estimate   =    -268.15595173 Ry
     estimated scf accuracy    <      33.14725110 Ry

     The total energy is the sum of the following terms:

     one-electron contribution =    -109.07777315 Ry
     hartree contribution      =      50.42105418 Ry
     xc contribution           =     -42.41961838 Ry
     ewald contribution        =    -211.74186573 Ry
     scf correction            =      44.93334929 Ry

     iteration # 11     ecut=   100.00 Ry     beta=0.60
     Davidson diagonalization with overlap
     ethr =  1.00E-02,  avg # of iterations =  1.8

     negative rho (up, down):  4.359E-07 0.000E+00

     total cpu time spent up to now is        7.1 secs

     total energy              =    -267.60164173 Ry
     Harris-Foulkes estimate   =    -268.34038993 Ry
     estimated scf accuracy    <      35.63417907 Ry

     iteration # 12     ecut=   100.00 Ry     beta=0.60
     Davidson diagonalization with overlap
     ethr =  1.00E-02,  avg # of iterations =  1.8

     negative rho (up, down):  3.041E-07 0.000E+00

     total cpu time spent up to now is        7.5 secs

     total energy              =    -267.92364884 Ry
     Harris-Foulkes estimate   =    -267.90291281 Ry
     estimated scf accuracy    <      33.68979852 Ry

     iteration # 13     ecut=   100.00 Ry     beta=0.60
     Davidson diagonalization with overlap
     ethr =  1.00E-02,  avg # of iterations =  1.0

     negative rho (up, down):  4.085E-07 0.000E+00

     total cpu time spent up to now is        7.8 secs

     total energy              =    -267.78001449 Ry
     Harris-Foulkes estimate   =    -267.94140309 Ry
     estimated scf accuracy    <      34.39450622 Ry

     iteration # 14     ecut=   100.00 Ry     beta=0.60
     Davidson diagonalization with overlap
     ethr =  1.00E-02,  avg # of iterations =  1.0

     negative rho (up, down):  1.314E-04 0.000E+00

     total cpu time spent up to now is        8.1 secs

     total energy              =    -265.71055091 Ry
     Harris-Foulkes estimate   =    -267.78915380 Ry
     estimated scf accuracy    <      33.29493782 Ry

     iteration # 15     ecut=   100.00 Ry     beta=0.60
     Davidson diagonalization with overlap
     ethr =  1.00E-02,  avg # of iterations =  1.1

     negative rho (up, down):  2.264E-06 0.000E+00

     total cpu time spent up to now is        8.4 secs

     total energy              =    -265.67425011 Ry
     Harris-Foulkes estimate   =    -266.02523021 Ry
     estimated scf accuracy    <      14.31535849 Ry

     iteration # 16     ecut=   100.00 Ry     beta=0.60
     Davidson diagonalization with overlap
     ethr =  1.00E-02,  avg # of iterations =  1.4

     negative rho (up, down):  5.448E-07 0.000E+00

     total cpu time spent up to now is        8.7 secs

     total energy              =    -264.86082787 Ry
     Harris-Foulkes estimate   =    -265.80819397 Ry
     estimated scf accuracy    <       8.39674986 Ry

     iteration # 17     ecut=   100.00 Ry     beta=0.60
     Davidson diagonalization with overlap
     ethr =  1.00E-02,  avg # of iterations =  2.7

     negative rho (up, down):  9.586E-07 0.000E+00

     total cpu time spent up to now is        9.1 secs

     total energy              =    -266.23658204 Ry
     Harris-Foulkes estimate   =    -265.77726076 Ry
     estimated scf accuracy    <       2.28004115 Ry

     iteration # 18     ecut=   100.00 Ry     beta=0.60
     Davidson diagonalization with overlap
     ethr =  5.70E-03,  avg # of iterations =  1.4

     negative rho (up, down):  2.047E-07 0.000E+00

     total cpu time spent up to now is        9.4 secs

     total energy              =    -265.25848833 Ry
     Harris-Foulkes estimate   =    -266.30245211 Ry
     estimated scf accuracy    <       3.48598784 Ry

     iteration # 19     ecut=   100.00 Ry     beta=0.60
     Davidson diagonalization with overlap
     ethr =  5.70E-03,  avg # of iterations =  1.4

     total cpu time spent up to now is        9.7 secs

     total energy              =    -264.85883042 Ry
     Harris-Foulkes estimate   =    -265.52084331 Ry
     estimated scf accuracy    <       2.13332261 Ry

     iteration # 20     ecut=   100.00 Ry     beta=0.60
     Davidson diagonalization with overlap
     ethr =  5.33E-03,  avg # of iterations =  2.1

     total cpu time spent up to now is       10.1 secs

          k = 0.0833 0.0833 0.0833     band energies (ev):

   -46.7397 -23.6647 -23.3820 -23.3818 -11.1659  -5.7431  -4.9865  -4.7144
     3.0623   3.1292   3.3129   8.3171   8.5826   8.6637   9.1698   9.2295
     9.9619  10.2691  10.8869  11.0748  11.6953  11.7664  11.8424  14.2298

          k = 0.0833 0.0833 0.2500     band energies (ev):

   -46.7391 -23.6635 -23.4055 -23.3808 -11.0462  -5.9217  -4.9268  -4.5654
     3.1497   3.2374   3.5811   7.4361   8.1229   8.2086   8.7262   8.9612
     9.5315   9.8060  10.4080  10.7065  11.7520  12.5024  12.7769  14.1674

          k = 0.0833 0.0833 0.4167     band energies (ev):

   -46.7386 -23.6624 -23.4290 -23.3796 -10.9169  -6.1409  -4.9291  -4.2870
     3.2910   3.4730   3.6829   6.4743   7.8473   7.8718   8.1677   8.8670
     9.3296   9.5510  10.0713  10.2484  11.7616  13.3150  13.5544  14.1282

          k = 0.0833 0.2500 0.2500     band energies (ev):

   -46.7386 -23.6625 -23.4045 -23.4040 -10.9481  -5.9362  -4.7313  -4.6393
     2.9778   3.2412   3.7968   7.1072   7.4322   7.9204   8.5175   8.5621
     8.7545   9.9528   9.9996  11.1427  12.3860  12.6217  13.0379  14.7005

          k = 0.0833 0.2500 0.4167     band energies (ev):

   -46.7380 -23.6613 -23.4274 -23.4029 -10.8438  -5.9990  -4.7579  -4.4207
     3.0097   3.2408   3.7750   6.3446   7.2588   7.5215   7.9496   8.4915
     8.8697   9.6671   9.8726  11.1269  12.5086  13.3127  13.5896  14.7533

          k = 0.0833 0.4167 0.4167     band energies (ev):

   -46.7374 -23.6603 -23.4260 -23.4259 -10.7677  -5.8726  -4.5564  -4.5531
     2.8998   2.9783   3.8021   6.2320   6.4372   7.0928   7.9960   7.9994
     8.6182   9.9537  10.1418  11.5729  13.2810  13.3442  13.8278  14.8570

          k = 0.2500 0.2500 0.2500     band energies (ev):

   -46.7380 -23.6873 -23.4031 -23.4027 -10.8696  -5.6366  -4.8624  -4.5871
     2.7173   2.8545   3.9201   6.7605   7.0063   7.3648   8.0985   8.5459
     8.6378  10.2443  10.4528  10.9469  12.8820  12.9788  13.2358  16.1384

          k = 0.2500 0.2500 0.4167     band energies (ev):

   -46.7374 -23.6861 -23.4260 -23.4016 -10.7818  -5.6777  -4.7371  -4.4446
     2.5768   2.7347   3.5375   6.3454   6.8993   7.2431   7.6502   8.5001
     8.7629  10.0870  10.4021  11.0910  13.0667  13.5013  13.7528  16.1348

          k = 0.2500 0.4167 0.4167     band energies (ev):

   -46.7369 -23.6849 -23.4246 -23.4245 -10.7136  -5.5596  -4.5058  -4.4751
     2.3650   2.3718   3.0096   6.2522   6.4350   7.0260   7.9283   8.4681
     8.6733  10.2757  10.3849  11.5621  13.6319  13.6625  14.0403  16.4345

          k = 0.4167 0.4167 0.4167     band energies (ev):

   -46.7362 -23.7090 -23.4232 -23.4231 -10.6582  -5.2082  -4.4674  -4.3885
     1.9078   2.0098   2.2878   5.8528   6.3822   6.4347   8.3935   8.6709
     8.9945  10.8742  10.9047  11.5452  13.9723  13.9783  14.2797  18.0448

          k = 0.2500-0.0833 0.0833     band energies (ev):

   -46.7390 -23.6899 -23.3808 -23.3806 -11.0529  -5.5466  -5.1712  -4.6899
     3.1206   3.1952   3.6059   7.0200   8.1863   8.3339   8.7511   8.8848
     9.7522   9.9097  10.5536  10.7997  11.8127  12.5140  12.5309  14.2174

          k = 0.4167-0.0833 0.0833     band energies (ev):

   -46.7385 -23.7150 -23.3796 -23.3794 -10.9326  -5.6406  -5.0368  -4.6655
     3.1775   3.4050   3.7694   5.9433   7.7835   8.0810   8.4114   8.6895
     9.4426   9.7929  10.1900  10.5509  11.8016  13.2139  13.2297  14.2034

          k = 0.2500-0.2500 0.0833     band energies (ev):

   -46.7385 -23.6886 -23.4041 -23.3796 -10.9531  -5.6481  -5.0467  -4.5996
     3.0369   3.1874   3.7838   6.8692   7.2434   7.7684   8.2687   8.6809
     9.3835   9.9771  10.3182  10.9348  12.5348  12.7644  12.8146  14.8194

          k = 0.4167-0.2500 0.0833     band energies (ev):

   -46.7379 -23.7135 -23.4027 -23.3784 -10.8555  -5.4177  -5.1357  -4.5985
     2.9658   3.3584   3.7025   5.8569   6.9112   7.4853   8.0238   8.4047
     9.4389   9.9808  10.4213  10.7502  12.7902  13.2384  13.2828  14.9406

          k = 0.2500 0.4167 0.0833     band energies (ev):

   -46.7379 -23.6872 -23.4274 -23.3785 -10.8471  -5.8164  -4.9330  -4.4100
     3.1156   3.2125   3.7390   6.3567   6.8730   7.1622   7.7351   8.6659
     9.2084  10.0634  10.2570  10.7891  12.5690  13.3588  13.5483  14.8973

          k = 0.4167-0.4167 0.0833     band energies (ev):

   -46.7373 -23.7119 -23.4258 -23.3774 -10.7744  -5.3856  -5.0348  -4.5236
     2.9216   3.1415   3.6812   5.8286   6.3434   6.6512   7.5411   8.2589
     9.0960  10.5406  10.8062  11.0612  13.2476  13.5414  13.5884  15.1313

          k = 0.4167-0.2500 0.2500     band energies (ev):

   -46.7373 -23.7120 -23.4018 -23.4014 -10.7876  -5.2756  -5.0374  -4.5333
     2.4677   2.9028   3.4812   5.8420   6.9430   7.3279   7.6888   8.5705
     8.9091  10.4123  10.6322  10.7147  13.3382  13.4352  13.4507  16.3003

          k = 0.4167-0.4167 0.2500     band energies (ev):

   -46.7368 -23.7106 -23.4245 -23.4003 -10.7169  -5.2861  -4.7769  -4.4581
     2.3153   2.5173   2.9189   5.8533   6.4291   7.3960   7.6688   8.3488
     8.8048  10.6207  10.9126  11.1155  13.5796  13.7631  13.9192  16.7214

     highest occupied, lowest unoccupied level (ev):    11.5729   11.6953

!    total energy              =    -264.78720960 Ry
     Harris-Foulkes estimate   =    -265.07406538 Ry
     estimated scf accuracy    <       1.28200524 Ry

     The total energy is the sum of the following terms:

     one-electron contribution =     -71.89258262 Ry
     hartree contribution      =      58.15767597 Ry
     xc contribution           =     -43.00624018 Ry
     ewald contribution        =    -211.74186573 Ry
     scf correction            =       3.69580296 Ry

     iteration # 21     ecut=   100.00 Ry     beta=0.60
     Davidson diagonalization with overlap
     ethr =  3.21E-03,  avg # of iterations =  1.0

     total cpu time spent up to now is       10.4 secs

     total energy              =    -264.73923409 Ry
     Harris-Foulkes estimate   =    -264.89699095 Ry
     estimated scf accuracy    <       0.22113766 Ry

     iteration # 22     ecut=   100.00 Ry     beta=0.60
     Davidson diagonalization with overlap
     ethr =  5.53E-04,  avg # of iterations =  3.2

     total cpu time spent up to now is       10.8 secs

     total energy              =    -264.77026132 Ry
     Harris-Foulkes estimate   =    -264.85136223 Ry
     estimated scf accuracy    <       0.20539708 Ry

     iteration # 23     ecut=   100.00 Ry     beta=0.60
     Davidson diagonalization with overlap
     ethr =  5.13E-04,  avg # of iterations =  3.2

     total cpu time spent up to now is       11.2 secs

     total energy              =    -264.80117985 Ry
     Harris-Foulkes estimate   =    -264.80410949 Ry
     estimated scf accuracy    <       0.00637690 Ry

     iteration # 24     ecut=   100.00 Ry     beta=0.60
     Davidson diagonalization with overlap
     ethr =  1.59E-05,  avg # of iterations =  5.7

     total cpu time spent up to now is       11.8 secs

     total energy              =    -264.80424077 Ry
     Harris-Foulkes estimate   =    -264.80512686 Ry
     estimated scf accuracy    <       0.00233212 Ry

     iteration # 25     ecut=   100.00 Ry     beta=0.60
     Davidson diagonalization with overlap
     ethr =  5.83E-06,  avg # of iterations =  3.3

     total cpu time spent up to now is       12.3 secs

     total energy              =    -264.80443335 Ry
     Harris-Foulkes estimate   =    -264.80468231 Ry
     estimated scf accuracy    <       0.00077980 Ry

     iteration # 26     ecut=   100.00 Ry     beta=0.60
     Davidson diagonalization with overlap
     ethr =  1.95E-06,  avg # of iterations =  2.6

     total cpu time spent up to now is       12.6 secs

     total energy              =    -264.80453841 Ry
     Harris-Foulkes estimate   =    -264.80454654 Ry
     estimated scf accuracy    <       0.00005819 Ry

     iteration # 27     ecut=   100.00 Ry     beta=0.60
     Davidson diagonalization with overlap
     ethr =  1.45E-07,  avg # of iterations =  3.3

     total cpu time spent up to now is       13.0 secs

     total energy              =    -264.80454237 Ry
     Harris-Foulkes estimate   =    -264.80454875 Ry
     estimated scf accuracy    <       0.00002130 Ry

     iteration # 28     ecut=   100.00 Ry     beta=0.60
     Davidson diagonalization with overlap
     ethr =  5.32E-08,  avg # of iterations =  4.0

     total cpu time spent up to now is       13.5 secs

     total energy              =    -264.80454337 Ry
     Harris-Foulkes estimate   =    -264.80454470 Ry
     estimated scf accuracy    <       0.00000402 Ry

     iteration # 29     ecut=   100.00 Ry     beta=0.60
     Davidson diagonalization with overlap
     ethr =  1.00E-08,  avg # of iterations =  4.9

     total cpu time spent up to now is       14.0 secs

     total energy              =    -264.80454483 Ry
     Harris-Foulkes estimate   =    -264.80454496 Ry
     estimated scf accuracy    <       0.00000038 Ry

     iteration # 30     ecut=   100.00 Ry     beta=0.60
     Davidson diagonalization with overlap
     ethr =  9.42E-10,  avg # of iterations =  4.3

     total cpu time spent up to now is       14.4 secs

          k = 0.0833 0.0833 0.0833     band energies (ev):

   -44.6098 -21.2588 -21.2098 -21.2094 -13.7167  -5.7528  -5.0769  -4.9982
     1.2271   1.2384   1.3915   8.3849   8.5909   8.6036   9.2422   9.2921
     9.7245  10.2545  10.6506  10.6727  13.1483  13.3297  13.3555  15.8561

          k = 0.0833 0.0833 0.2500     band energies (ev):

   -44.6092 -21.2573 -21.2422 -21.2082 -13.6480  -5.8562  -5.0346  -4.8936
     1.2886   1.3094   1.6169   7.6409   8.2786   8.3914   8.8198   8.8978
     9.5923   9.6353  10.2825  10.4261  13.3957  13.9626  14.0095  15.9407

          k = 0.0833 0.0833 0.4167     band energies (ev):

   -44.6085 -21.2745 -21.2558 -21.2068 -13.5772  -6.0369  -5.0085  -4.6658
     1.3471   1.4873   1.7301   6.9124   8.0138   8.1192   8.2990   8.6240
     9.4459   9.5539   9.8532  10.1463  13.4627  14.7098  14.7537  15.9302

          k = 0.0833 0.2500 0.2500     band energies (ev):

   -44.6085 -21.2560 -21.2410 -21.2395 -13.5910  -5.7745  -4.9586  -4.9326
     1.1983   1.3147   1.7357   7.2919   7.8504   8.0467   8.4655   8.6897
     9.0579   9.8498  10.0716  10.4982  13.9667  14.1384  14.3215  16.4339

          k = 0.0833 0.2500 0.4167     band energies (ev):

   -44.6078 -21.2720 -21.2545 -21.2383 -13.5324  -5.7951  -4.9472  -4.7840
     1.2018   1.4004   1.6636   6.8142   7.4181   7.6969   8.1634   8.5072
     9.2162   9.6711   9.8634  10.4879  14.0988  14.7813  14.8665  16.4873

          k = 0.0833 0.4167 0.4167     band energies (ev):

   -44.6071 -21.2698 -21.2693 -21.2531 -13.4866  -5.5434  -4.9144  -4.8722
     1.1641   1.2157   1.6327   6.6319   6.9370   7.0912   8.1657   8.1949
     9.1341   9.8511  10.0071  10.8489  14.7900  14.8393  15.1774  16.5959

          k = 0.2500 0.2500 0.2500     band energies (ev):

   -44.6078 -21.2880 -21.2391 -21.2379 -13.5414  -5.5693  -4.9708  -4.8983
     1.0176   1.0316   1.8076   7.0431   7.7155   7.7886   8.3697   8.4955
     8.5421  10.1500  10.2320  10.3263  14.4211  14.4823  14.5161  17.5978

          k = 0.2500 0.2500 0.4167     band energies (ev):

   -44.6071 -21.2862 -21.2699 -21.2367 -13.4903  -5.5110  -4.8907  -4.8009
     0.8490   1.0469   1.5357   6.7874   7.4109   7.7230   7.8648   8.4911
     8.6662   9.9696  10.3056  10.4184  14.5999  14.9536  15.0235  17.5830

          k = 0.2500 0.4167 0.4167     band energies (ev):

   -44.6065 -21.2846 -21.2679 -21.2676 -13.4471  -5.2504  -4.8183  -4.8058
     0.7276   0.7739   1.1453   6.6449   7.0958   7.6376   7.8775   8.4500
     8.5375  10.1993  10.3027  10.8446  15.1071  15.1218  15.3026  17.7781

          k = 0.4167 0.4167 0.4167     band energies (ev):

   -44.6058 -21.3157 -21.2660 -21.2658 -13.4069  -4.9075  -4.7652  -4.7144
     0.4084   0.4242   0.6103   6.4994   7.0435   7.1029   8.3090   8.5801
     8.6189  10.7004  10.7257  10.8497  15.4332  15.4565  15.4659  18.1505

          k = 0.2500-0.0833 0.0833     band energies (ev):

   -44.6092 -21.2917 -21.2083 -21.2080 -13.6484  -5.8109  -4.9961  -4.9733
     1.2800   1.3067   1.6270   7.5999   8.2499   8.3420   8.8336   8.8697
     9.5870   9.7181  10.3718  10.3947  13.2148  14.0807  14.1055  15.8584

          k = 0.4167-0.0833 0.0833     band energies (ev):

   -44.6085 -21.3243 -21.2068 -21.2066 -13.5778  -5.9803  -4.9481  -4.7737
     1.3337   1.4758   1.7534   6.7974   7.9392   8.0671   8.3655   8.6546
     9.3478   9.5833  10.0568  10.1813  13.2806  14.7980  14.8257  15.8579

          k = 0.2500-0.2500 0.0833     band energies (ev):

   -44.6085 -21.2897 -21.2402 -21.2068 -13.5912  -5.7265  -5.0306  -4.9026
     1.2059   1.3051   1.7383   7.2793   7.7329   8.0717   8.4106   8.6248
     9.2697   9.8845  10.0238  10.4634  13.9865  14.1743  14.3684  16.3928

          k = 0.4167-0.2500 0.0833     band energies (ev):

   -44.6078 -21.3218 -21.2383 -21.2054 -13.5329  -5.7232  -4.9242  -4.8660
     1.1947   1.4142   1.6589   6.7283   7.2551   7.7947   8.0914   8.4547
     9.4012   9.6978   9.9406  10.4123  14.0669  14.8403  14.9178  16.4737

          k = 0.2500 0.4167 0.0833     band energies (ev):

   -44.6078 -21.2878 -21.2720 -21.2054 -13.5325  -5.7626  -4.9762  -4.7799
     1.2157   1.3938   1.6592   6.8164   7.3423   7.6897   8.0419   8.5190
     9.3260   9.6972   9.9102  10.4301  14.1915  14.7494  14.9016  16.5064

          k = 0.4167-0.4167 0.0833     band energies (ev):

   -44.6071 -21.3193 -21.2695 -21.2041 -13.4869  -5.4501  -4.9893  -4.8742
     1.1684   1.2305   1.6182   6.6058   6.8249   7.0901   7.9852   8.1925
     9.1718   9.9941  10.1664  10.7636  14.7808  14.8799  15.2146  16.6696

          k = 0.4167-0.2500 0.2500     band energies (ev):

   -44.6071 -21.3197 -21.2371 -21.2363 -13.4905  -5.4576  -4.9027  -4.8353
     0.8361   1.0675   1.5283   6.7178   7.2930   7.7551   7.8915   8.5226
     8.7216  10.0423  10.3318  10.3403  14.5545  14.9832  15.0526  17.5548

          k = 0.4167-0.4167 0.2500     band energies (ev):

   -44.6065 -21.3175 -21.2677 -21.2352 -13.4472  -5.1767  -4.8948  -4.7940
     0.7241   0.7866   1.1361   6.6174   7.0479   7.5854   7.8716   8.4326
     8.5558  10.2857  10.4243  10.7528  15.0787  15.1242  15.3365  17.8732

     highest occupied, lowest unoccupied level (ev):    10.8497   13.1483

!    total energy              =    -264.80454491 Ry
     Harris-Foulkes estimate   =    -264.80454494 Ry
     estimated scf accuracy    <       0.00000005 Ry

     The total energy is the sum of the following terms:

     one-electron contribution =     -68.55947786 Ry
     hartree contribution      =      58.31531511 Ry
     xc contribution           =     -42.81989430 Ry
     ewald contribution        =    -211.74186573 Ry
     scf correction            =       0.00137787 Ry

     iteration # 31     ecut=   100.00 Ry     beta=0.60
     Davidson diagonalization with overlap
     ethr =  1.13E-10,  avg # of iterations =  4.1

     total cpu time spent up to now is       14.9 secs

     total energy              =    -264.80454493 Ry
     Harris-Foulkes estimate   =    -264.80454493 Ry
     estimated scf accuracy    <          9.6E-10 Ry

     iteration # 32     ecut=   100.00 Ry     beta=0.60
     Davidson diagonalization with overlap
     ethr =  2.39E-12,  avg # of iterations =  5.0

     total cpu time spent up to now is       15.5 secs

     total energy              =    -264.80454493 Ry
     Harris-Foulkes estimate   =    -264.80454493 Ry
     estimated scf accuracy    <          1.0E-10 Ry

     iteration # 33     ecut=   100.00 Ry     beta=0.60
     Davidson diagonalization with overlap
     ethr =  2.53E-13,  avg # of iterations =  3.7

     total cpu time spent up to now is       16.1 secs

     total energy              =    -264.80454493 Ry
     Harris-Foulkes estimate   =    -264.80454493 Ry
     estimated scf accuracy    <          5.6E-11 Ry

     iteration # 34     ecut=   100.00 Ry     beta=0.60
     Davidson diagonalization with overlap
     ethr =  1.39E-13,  avg # of iterations =  2.7

     total cpu time spent up to now is       16.5 secs

     total energy              =    -264.80454493 Ry
     Harris-Foulkes estimate   =    -264.80454493 Ry
     estimated scf accuracy    <          1.0E-12 Ry

     iteration # 35     ecut=   100.00 Ry     beta=0.60
     Davidson diagonalization with overlap
     ethr =  1.00E-13,  avg # of iterations =  1.0

     total cpu time spent up to now is       16.8 secs

     End of self-consistent calculation

          k = 0.0833 0.0833 0.0833 (  6850 PWs)   bands (ev):

   -44.6090 -21.2580 -21.2090 -21.2086 -13.7175  -5.7524  -5.0764  -4.9976
     1.2265   1.2378   1.3909   8.3853   8.5914   8.6040   9.2425   9.2925
     9.7249  10.2550  10.6511  10.6731  13.1489  13.3303  13.3561  15.8569

          k = 0.0833 0.0833 0.2500 (  6839 PWs)   bands (ev):

   -44.6083 -21.2565 -21.2413 -21.2073 -13.6488  -5.8558  -5.0340  -4.8930
     1.2880   1.3088   1.6163   7.6415   8.2790   8.3918   8.8202   8.8982
     9.5928   9.6357  10.2830  10.4266  13.3964  13.9633  14.0101  15.9415

          k = 0.0833 0.0833 0.4167 (  6839 PWs)   bands (ev):

   -44.6076 -21.2736 -21.2550 -21.2059 -13.5779  -6.0365  -5.0080  -4.6652
     1.3465   1.4867   1.7295   6.9130   8.0142   8.1197   8.2994   8.6244
     9.4463   9.5544   9.8537  10.1468  13.4634  14.7105  14.7544  15.9310

          k = 0.0833 0.2500 0.2500 (  6847 PWs)   bands (ev):

   -44.6076 -21.2551 -21.2401 -21.2386 -13.5918  -5.7741  -4.9580  -4.9321
     1.1978   1.3141   1.7351   7.2924   7.8510   8.0472   8.4659   8.6901
     9.0583   9.8502  10.0721  10.4986  13.9674  14.1391  14.3222  16.4347

          k = 0.0833 0.2500 0.4167 (  6833 PWs)   bands (ev):

   -44.6069 -21.2712 -21.2537 -21.2374 -13.5332  -5.7947  -4.9467  -4.7835
     1.2012   1.3999   1.6629   6.8148   7.4185   7.6975   8.1638   8.5076
     9.2166   9.6715   9.8638  10.4884  14.0995  14.7820  14.8672  16.4880

          k = 0.0833 0.4167 0.4167 (  6854 PWs)   bands (ev):

   -44.6063 -21.2689 -21.2685 -21.2523 -13.4874  -5.5430  -4.9138  -4.8717
     1.1636   1.2151   1.6321   6.6325   6.9374   7.0919   8.1661   8.1954
     9.1346   9.8514  10.0074  10.8494  14.7907  14.8400  15.1781  16.5966

          k = 0.2500 0.2500 0.2500 (  6881 PWs)   bands (ev):

   -44.6069 -21.2872 -21.2382 -21.2370 -13.5421  -5.5689  -4.9704  -4.8977
     1.0171   1.0310   1.8070   7.0436   7.7160   7.7892   8.3702   8.4959
     8.5424  10.1504  10.2324  10.3268  14.4217  14.4830  14.5168  17.5985

          k = 0.2500 0.2500 0.4167 (  6839 PWs)   bands (ev):

   -44.6063 -21.2854 -21.2690 -21.2359 -13.4911  -5.5106  -4.8902  -4.8003
     0.8485   1.0464   1.5351   6.7879   7.4114   7.7236   7.8653   8.4914
     8.6666   9.9701  10.3060  10.4189  14.6006  14.9543  15.0242  17.5837

          k = 0.2500 0.4167 0.4167 (  6851 PWs)   bands (ev):

   -44.6056 -21.2838 -21.2670 -21.2667 -13.4479  -5.2499  -4.8178  -4.8052
     0.7271   0.7734   1.1448   6.6455   7.0964   7.6380   7.8780   8.4503
     8.5378  10.1997  10.3031  10.8451  15.1078  15.1225  15.3033  17.7787

          k = 0.4167 0.4167 0.4167 (  6854 PWs)   bands (ev):

   -44.6049 -21.3149 -21.2652 -21.2650 -13.4077  -4.9070  -4.7647  -4.7138
     0.4079   0.4237   0.6098   6.4999   7.0441   7.1036   8.3092   8.5804
     8.6192  10.7008  10.7262  10.8502  15.4339  15.4572  15.4666  18.1505

          k = 0.2500-0.0833 0.0833 (  6839 PWs)   bands (ev):

   -44.6083 -21.2909 -21.2075 -21.2072 -13.6491  -5.8104  -4.9957  -4.9727
     1.2794   1.3061   1.6265   7.6004   8.2504   8.3424   8.8339   8.8701
     9.5874   9.7186  10.3723  10.3952  13.2154  14.0813  14.1061  15.8592

          k = 0.4167-0.0833 0.0833 (  6839 PWs)   bands (ev):

   -44.6076 -21.3235 -21.2060 -21.2057 -13.5786  -5.9798  -4.9475  -4.7732
     1.3331   1.4752   1.7528   6.7979   7.9396   8.0676   8.3659   8.6549
     9.3482   9.5838  10.0574  10.1819  13.2813  14.7987  14.8264  15.8587

          k = 0.2500-0.2500 0.0833 (  6847 PWs)   bands (ev):

   -44.6076 -21.2889 -21.2394 -21.2059 -13.5920  -5.7260  -5.0301  -4.9020
     1.2054   1.3045   1.7377   7.2797   7.7334   8.0721   8.4110   8.6251
     9.2702   9.8849  10.0243  10.4638  13.9872  14.1750  14.3691  16.3936

          k = 0.4167-0.2500 0.0833 (  6833 PWs)   bands (ev):

   -44.6069 -21.3210 -21.2374 -21.2045 -13.5337  -5.7227  -4.9237  -4.8655
     1.1942   1.4137   1.6583   6.7288   7.2555   7.7953   8.0918   8.4550
     9.4018   9.6982   9.9411  10.4127  14.0676  14.8409  14.9184  16.4745

          k = 0.2500 0.4167 0.0833 (  6833 PWs)   bands (ev):

   -44.6069 -21.2869 -21.2711 -21.2045 -13.5333  -5.7621  -4.9757  -4.7794
     1.2152   1.3933   1.6586   6.8170   7.3427   7.6902   8.0423   8.5194
     9.3266   9.6977   9.9107  10.4305  14.1922  14.7501  14.9022  16.5072

          k = 0.4167-0.4167 0.0833 (  6854 PWs)   bands (ev):

   -44.6063 -21.3185 -21.2687 -21.2032 -13.4877  -5.4496  -4.9888  -4.8737
     1.1678   1.2300   1.6176   6.6063   6.8253   7.0906   7.9855   8.1929
     9.1724   9.9946  10.1668  10.7640  14.7816  14.8806  15.2152  16.6704

          k = 0.4167-0.2500 0.2500 (  6839 PWs)   bands (ev):

   -44.6063 -21.3189 -21.2363 -21.2354 -13.4913  -5.4571  -4.9023  -4.8347
     0.8355   1.0670   1.5278   6.7183   7.2934   7.7557   7.8920   8.5228
     8.7220  10.0428  10.3322  10.3408  14.5552  14.9839  15.0533  17.5556

          k = 0.4167-0.4167 0.2500 (  6851 PWs)   bands (ev):

   -44.6056 -21.3167 -21.2669 -21.2343 -13.4480  -5.1762  -4.8943  -4.7935
     0.7235   0.7861   1.1355   6.6179   7.0485   7.5857   7.8722   8.4329
     8.5561  10.2861  10.4248  10.7532  15.0794  15.1249  15.3371  17.8739

     highest occupied, lowest unoccupied level (ev):    10.8502   13.1489

!    total energy              =    -264.80454493 Ry
     Harris-Foulkes estimate   =    -264.80454493 Ry
     estimated scf accuracy    <          1.2E-13 Ry

     The total energy is the sum of the following terms:

     one-electron contribution =     -68.55822583 Ry
     hartree contribution      =      58.31547702 Ry
     xc contribution           =     -42.81993038 Ry
     ewald contribution        =    -211.74186573 Ry

     convergence has been achieved in  35 iterations

     Forces acting on atoms (cartesian axes, Ry/au):

     atom    1 type  3   force =     0.01806790    0.00000000    0.00000000
     atom    2 type  2   force =    -0.02125949    0.00000000    0.00000000
     atom    3 type  1   force =    -0.00242521    0.00000000    0.00000000
     atom    4 type  1   force =     0.00280840    0.00000000    0.00000000
     atom    5 type  1   force =     0.00280840    0.00000000    0.00000000

     Total force =     0.028286     Total SCF correction =     0.000000


     Computing stress (Cartesian axis) and pressure

          total   stress  (Ry/bohr**3)                   (kbar)     P=   37.71
   0.00035527   0.00000000   0.00000000         52.26      0.00      0.00
   0.00000000   0.00020688   0.00000000          0.00     30.43      0.00
   0.00000000   0.00000000   0.00020688          0.00      0.00     30.43


     BFGS Geometry Optimization

     number of scf cycles    =   1
     number of bfgs steps    =   0

     enthalpy new            =    -264.8045449308 Ry

     new trust radius        =       0.0357586185 bohr
     new conv_thr            =            1.0E-12 Ry

     new unit-cell volume =    413.06290 a.u.^3 (    61.20961 Ang^3 )
     density =      6.32588 g/cm^3

CELL_PARAMETERS (alat=  7.40000000)
   1.008881844   0.000000000   0.000000000
   0.000000000   1.005171949   0.000000000
   0.000000000   0.000000000   1.005171949

ATOMIC_POSITIONS (crystal)
Ba       0.002441608   0.000000000   0.000000000
Ti       0.527127096   0.500000000   0.500000000
O       -0.000327731   0.500000000   0.500000000
O        0.500379513   0.000000000   0.500000000
O        0.500379513   0.500000000   0.000000000



     Writing output data file bto.save
     NEW-OLD atomic charge density approx. for the potential
     extrapolated charge   40.55035, renormalised to   40.00000

     total cpu time spent up to now is       18.1 secs

     per-process dynamical memory:    78.0 Mb

     Self-consistent Calculation

     iteration #  1     ecut=   100.00 Ry     beta=0.60
     Davidson diagonalization with overlap
     c_bands:  1 eigenvalues not converged
     c_bands:  1 eigenvalues not converged
     c_bands:  1 eigenvalues not converged
     ethr =  1.00E-06,  avg # of iterations = 12.7

     total cpu time spent up to now is       19.2 secs

     total energy              =    -264.70336696 Ry
     Harris-Foulkes estimate   =    -263.99822496 Ry
     estimated scf accuracy    <       0.13963074 Ry

     iteration #  2     ecut=   100.00 Ry     beta=0.60
     Davidson diagonalization with overlap
     ethr =  3.49E-04,  avg # of iterations =  4.6

     total cpu time spent up to now is       19.9 secs

     total energy              =    -264.76748963 Ry
     Harris-Foulkes estimate   =    -264.85933586 Ry
     estimated scf accuracy    <       0.21769074 Ry

     iteration #  3     ecut=   100.00 Ry     beta=0.60
     Davidson diagonalization with overlap
     ethr =  3.49E-04,  avg # of iterations =  3.1

     total cpu time spent up to now is       20.3 secs

     total energy              =    -264.80084574 Ry
     Harris-Foulkes estimate   =    -264.81515093 Ry
     estimated scf accuracy    <       0.04617621 Ry

     iteration #  4     ecut=   100.00 Ry     beta=0.60
     Davidson diagonalization with overlap
     ethr =  1.15E-04,  avg # of iterations =  2.4

     total cpu time spent up to now is       20.6 secs

     total energy              =    -264.80486580 Ry
     Harris-Foulkes estimate   =    -264.80670595 Ry
     estimated scf accuracy    <       0.00335309 Ry

     iteration #  5     ecut=   100.00 Ry     beta=0.60
     Davidson diagonalization with overlap
     ethr =  8.38E-06,  avg # of iterations =  4.9

     total cpu time spent up to now is       21.2 secs

     total energy              =    -264.80617188 Ry
     Harris-Foulkes estimate   =    -264.80629838 Ry
     estimated scf accuracy    <       0.00065234 Ry

     iteration #  6     ecut=   100.00 Ry     beta=0.60
     Davidson diagonalization with overlap
     ethr =  1.63E-06,  avg # of iterations =  2.3

     total cpu time spent up to now is       21.6 secs

     total energy              =    -264.80618265 Ry
     Harris-Foulkes estimate   =    -264.80622462 Ry
     estimated scf accuracy    <       0.00018420 Ry

     iteration #  7     ecut=   100.00 Ry     beta=0.60
     Davidson diagonalization with overlap
     ethr =  4.61E-07,  avg # of iterations =  4.3

     total cpu time spent up to now is       22.0 secs

     total energy              =    -264.80620646 Ry
     Harris-Foulkes estimate   =    -264.80621195 Ry
     estimated scf accuracy    <       0.00001692 Ry

     iteration #  8     ecut=   100.00 Ry     beta=0.60
     Davidson diagonalization with overlap
     ethr =  4.23E-08,  avg # of iterations =  4.7

     total cpu time spent up to now is       22.5 secs

     total energy              =    -264.80621600 Ry
     Harris-Foulkes estimate   =    -264.80621612 Ry
     estimated scf accuracy    <       0.00000041 Ry

     iteration #  9     ecut=   100.00 Ry     beta=0.60
     Davidson diagonalization with overlap
     ethr =  1.03E-09,  avg # of iterations =  5.1

     total cpu time spent up to now is       23.1 secs

     total energy              =    -264.80621616 Ry
     Harris-Foulkes estimate   =    -264.80621620 Ry
     estimated scf accuracy    <       0.00000008 Ry

     iteration # 10     ecut=   100.00 Ry     beta=0.60
     Davidson diagonalization with overlap
     ethr =  1.91E-10,  avg # of iterations =  3.7

     total cpu time spent up to now is       23.5 secs

          k = 0.0826 0.0829 0.0829     band energies (ev):

   -44.9952 -21.6148 -21.5815 -21.5811 -14.0445  -5.9967  -5.3070  -5.2514
     0.9129   0.9149   1.0618   8.0903   8.2969   8.3001   9.0184   9.0530
     9.4777   9.9704  10.3569  10.3722  12.8137  12.9514  12.9774  15.4216

          k = 0.0826 0.0829 0.2487     band energies (ev):

   -44.9946 -21.6137 -21.6111 -21.5800 -13.9819  -6.0783  -5.2711  -5.1578
     0.9673   0.9811   1.2722   7.3699   8.0077   8.1130   8.5758   8.6403
     9.3272   9.3781   9.9983  10.1262  13.0138  13.6079  13.6411  15.4674

          k = 0.0826 0.0829 0.4145     band energies (ev):

   -44.9940 -21.6410 -21.6121 -21.5787 -13.9175  -6.2391  -5.2459  -4.9470
     1.0218   1.1488   1.3736   6.6528   7.7685   7.8557   8.0521   8.3691
     9.1793   9.2794   9.5866   9.8596  13.0773  14.3348  14.3669  15.4558

          k = 0.0826 0.2487 0.2487     band energies (ev):

   -44.9940 -21.6126 -21.6098 -21.6089 -13.9296  -5.9900  -5.2144  -5.1822
     0.8757   0.9873   1.3799   7.0370   7.5834   7.7900   8.1732   8.4265
     8.8210   9.6108   9.7701  10.2038  13.5978  13.7633  13.9610  15.9383

          k = 0.0826 0.2487 0.4145     band energies (ev):

   -44.9934 -21.6388 -21.6111 -21.6076 -13.8759  -6.0005  -5.1929  -5.0536
     0.8809   1.0629   1.3074   6.5599   7.1681   7.4363   7.8898   8.2405
     8.9657   9.4108   9.5972  10.1997  13.7241  14.3939  14.4893  15.9964

          k = 0.0826 0.4145 0.4145     band energies (ev):

   -44.9928 -21.6368 -21.6365 -21.6097 -13.8334  -5.7482  -5.1732  -5.1299
     0.8344   0.8865   1.2792   6.3776   6.6904   6.8335   7.9019   7.9391
     8.8398   9.5995   9.7564  10.5635  14.4005  14.4466  14.7954  16.1096

          k = 0.2478 0.2487 0.2487     band energies (ev):

   -44.9934 -21.6405 -21.6085 -21.6075 -13.8851  -5.8043  -5.2135  -5.1584
     0.7095   0.7269   1.4454   6.8034   7.4820   7.5305   8.1003   8.2238
     8.2720   9.8992   9.9360  10.0420  14.0480  14.0940  14.1232  17.1407

          k = 0.2478 0.2487 0.4145     band energies (ev):

   -44.9928 -21.6390 -21.6369 -21.6064 -13.8380  -5.7365  -5.1408  -5.0695
     0.5562   0.7349   1.1912   6.5305   7.1681   7.4767   7.5945   8.2047
     8.3995   9.7056  10.0334  10.1371  14.2013  14.5705  14.6250  17.0883

          k = 0.2478 0.4145 0.4145     band energies (ev):

   -44.9922 -21.6376 -21.6351 -21.6350 -13.7979  -5.4768  -5.0837  -5.0680
     0.4380   0.4743   0.8283   6.3847   6.8376   7.3624   7.6135   8.1688
     8.2495   9.9412  10.0474  10.5600  14.7023  14.7172  14.9125  17.3029

          k = 0.4130 0.4145 0.4145     band energies (ev):

   -44.9916 -21.6650 -21.6336 -21.6334 -13.7619  -5.1597  -5.0307  -4.9873
     0.1353   0.1567   0.3288   6.2455   6.8220   6.8441   8.0206   8.2901
     8.2975  10.4187  10.4514  10.5663  15.0336  15.0383  15.0471  17.7836

          k = 0.2478-0.0829 0.0829     band energies (ev):

   -44.9947 -21.6438 -21.5802 -21.5799 -13.9836  -6.0534  -5.2295  -5.2285
     0.9621   0.9845   1.2768   7.3471   7.9902   8.0828   8.6006   8.6187
     9.3513   9.4272  10.0758  10.1043  12.8776  13.6816  13.7017  15.4221

          k = 0.4130-0.0829 0.0829     band energies (ev):

   -44.9941 -21.6725 -21.5789 -21.5787 -13.9210  -6.2051  -5.2052  -5.0300
     1.0120   1.1443   1.3933   6.5935   7.7140   7.8298   8.1085   8.4033
     9.1234   9.3037   9.7642   9.8921  12.9390  14.3727  14.3951  15.4201

          k = 0.2478-0.2487 0.0829     band energies (ev):

   -44.9940 -21.6421 -21.6096 -21.5788 -13.9311  -5.9627  -5.2677  -5.1615
     0.8872   0.9842   1.3830   7.0312   7.4985   7.8210   8.1518   8.3834
     8.9914   9.6239   9.7405  10.1630  13.6214  13.7777  13.9809  15.9363

          k = 0.4130-0.2487 0.0829     band energies (ev):

   -44.9935 -21.6704 -21.6079 -21.5776 -13.8791  -5.9569  -5.1791  -5.1215
     0.8802   1.0827   1.3111   6.5191   7.0533   7.5227   7.8549   8.2168
     9.1118   9.4247   9.6586  10.1308  13.7051  14.4133  14.5001  16.0215

          k = 0.2478 0.4145 0.0829     band energies (ev):

   -44.9934 -21.6404 -21.6387 -21.5775 -13.8773  -5.9831  -5.2191  -5.0513
     0.8972   1.0638   1.3111   6.5609   7.1235   7.4371   7.8254   8.2534
     9.0484   9.4228   9.6253  10.1386  13.7849  14.3708  14.5071  16.0379

          k = 0.4130-0.4145 0.0829     band energies (ev):

   -44.9928 -21.6682 -21.6368 -21.5764 -13.8363  -5.6916  -5.2356  -5.1368
     0.8523   0.9097   1.2757   6.3694   6.6238   6.8518   7.7942   7.9492
     8.8748   9.6897   9.8559  10.4805  14.3964  14.4509  14.8020  16.2074

          k = 0.4130-0.2487 0.2487     band energies (ev):

   -44.9928 -21.6685 -21.6068 -21.6061 -13.8397  -5.7007  -5.1515  -5.1000
     0.5424   0.7606   1.1897   6.5013   7.0852   7.4992   7.6164   8.2423
     8.4319   9.7758  10.0455  10.0757  14.1787  14.5713  14.6284  17.0995

          k = 0.4130-0.4145 0.2487     band energies (ev):

   -44.9922 -21.6666 -21.6351 -21.6051 -13.7994  -5.4273  -5.1460  -5.0616
     0.4365   0.4967   0.8231   6.3763   6.8168   7.3417   7.6038   8.1620
     8.2636  10.0033  10.1332  10.4740  14.6856  14.7063  14.9200  17.4129

     highest occupied, lowest unoccupied level (ev):    10.5663   12.8137

!    total energy              =    -264.80621618 Ry
     Harris-Foulkes estimate   =    -264.80621618 Ry
     estimated scf accuracy    <          1.1E-09 Ry

     The total energy is the sum of the following terms:

     one-electron contribution =     -70.37965730 Ry
     hartree contribution      =      58.74213471 Ry
     xc contribution           =     -42.74442436 Ry
     ewald contribution        =    -210.42448572 Ry
     scf correction            =       0.00021648 Ry

     iteration # 11     ecut=   100.00 Ry     beta=0.60
     Davidson diagonalization with overlap
     ethr =  2.76E-12,  avg # of iterations =  5.6

     total cpu time spent up to now is       24.2 secs

     total energy              =    -264.80621618 Ry
     Harris-Foulkes estimate   =    -264.80621618 Ry
     estimated scf accuracy    <          1.9E-10 Ry

     iteration # 12     ecut=   100.00 Ry     beta=0.60
     Davidson diagonalization with overlap
     ethr =  4.78E-13,  avg # of iterations =  3.8

     total cpu time spent up to now is       24.6 secs

     total energy              =    -264.80621618 Ry
     Harris-Foulkes estimate   =    -264.80621618 Ry
     estimated scf accuracy    <          4.4E-12 Ry

     iteration # 13     ecut=   100.00 Ry     beta=0.60
     Davidson diagonalization with overlap
     ethr =  1.00E-13,  avg # of iterations =  3.3

     total cpu time spent up to now is       25.0 secs

     End of self-consistent calculation

          k = 0.0826 0.0829 0.0829 (  6850 PWs)   bands (ev):

   -44.9951 -21.6147 -21.5814 -21.5810 -14.0445  -5.9966  -5.3069  -5.2514
     0.9129   0.9149   1.0617   8.0904   8.2969   8.3001   9.0184   9.0530
     9.4777   9.9705  10.3569  10.3722  12.8138  12.9515  12.9775  15.4217

          k = 0.0826 0.0829 0.2487 (  6839 PWs)   bands (ev):

   -44.9945 -21.6136 -21.6110 -21.5799 -13.9819  -6.0783  -5.2710  -5.1577
     0.9673   0.9810   1.2722   7.3700   8.0078   8.1130   8.5759   8.6404
     9.3273   9.3782   9.9983  10.1263  13.0139  13.6080  13.6412  15.4675

          k = 0.0826 0.0829 0.4145 (  6839 PWs)   bands (ev):

   -44.9939 -21.6409 -21.6120 -21.5786 -13.9175  -6.2390  -5.2458  -4.9469
     1.0217   1.1488   1.3735   6.6529   7.7686   7.8558   8.0522   8.3691
     9.1793   9.2795   9.5867   9.8597  13.0774  14.3349  14.3670  15.4559

          k = 0.0826 0.2487 0.2487 (  6847 PWs)   bands (ev):

   -44.9939 -21.6125 -21.6097 -21.6088 -13.9296  -5.9900  -5.2144  -5.1821
     0.8757   0.9873   1.3798   7.0370   7.5835   7.7901   8.1732   8.4266
     8.8211   9.6109   9.7701  10.2038  13.5979  13.7634  13.9611  15.9384

          k = 0.0826 0.2487 0.4145 (  6833 PWs)   bands (ev):

   -44.9933 -21.6387 -21.6109 -21.6075 -13.8760  -6.0004  -5.1929  -5.0536
     0.8808   1.0629   1.3073   6.5600   7.1682   7.4363   7.8898   8.2405
     8.9658   9.4109   9.5973  10.1997  13.7241  14.3940  14.4894  15.9965

          k = 0.0826 0.4145 0.4145 (  6854 PWs)   bands (ev):

   -44.9927 -21.6367 -21.6364 -21.6096 -13.8335  -5.7482  -5.1731  -5.1298
     0.8344   0.8865   1.2792   6.3776   6.6905   6.8336   7.9019   7.9391
     8.8399   9.5996   9.7564  10.5635  14.4005  14.4467  14.7955  16.1097

          k = 0.2478 0.2487 0.2487 (  6881 PWs)   bands (ev):

   -44.9933 -21.6404 -21.6084 -21.6074 -13.8851  -5.8043  -5.2135  -5.1583
     0.7095   0.7269   1.4454   6.8035   7.4821   7.5305   8.1003   8.2238
     8.2721   9.8992   9.9361  10.0420  14.0481  14.0941  14.1233  17.1408

          k = 0.2478 0.2487 0.4145 (  6839 PWs)   bands (ev):

   -44.9927 -21.6389 -21.6368 -21.6063 -13.8381  -5.7364  -5.1408  -5.0694
     0.5562   0.7349   1.1912   6.5306   7.1681   7.4767   7.5946   8.2048
     8.3995   9.7056  10.0335  10.1371  14.2014  14.5706  14.6251  17.0884

          k = 0.2478 0.4145 0.4145 (  6851 PWs)   bands (ev):

   -44.9921 -21.6375 -21.6350 -21.6348 -13.7980  -5.4767  -5.0836  -5.0679
     0.4380   0.4743   0.8283   6.3847   6.8377   7.3624   7.6136   8.1688
     8.2495   9.9412  10.0474  10.5600  14.7024  14.7173  14.9126  17.3030

          k = 0.4130 0.4145 0.4145 (  6854 PWs)   bands (ev):

   -44.9915 -21.6648 -21.6335 -21.6333 -13.7619  -5.1596  -5.0306  -4.9872
     0.1353   0.1567   0.3288   6.2456   6.8221   6.8442   8.0206   8.2901
     8.2975  10.4188  10.4514  10.5664  15.0336  15.0384  15.0472  17.7836

          k = 0.2478-0.0829 0.0829 (  6839 PWs)   bands (ev):

   -44.9945 -21.6437 -21.5801 -21.5798 -13.9837  -6.0533  -5.2294  -5.2284
     0.9621   0.9844   1.2767   7.3472   7.9903   8.0828   8.6007   8.6187
     9.3513   9.4273  10.0759  10.1044  12.8776  13.6817  13.7018  15.4222

          k = 0.4130-0.0829 0.0829 (  6839 PWs)   bands (ev):

   -44.9939 -21.6724 -21.5787 -21.5786 -13.9211  -6.2051  -5.2051  -5.0299
     1.0120   1.1442   1.3933   6.5936   7.7140   7.8299   8.1086   8.4034
     9.1235   9.3038   9.7643   9.8922  12.9391  14.3728  14.3952  15.4202

          k = 0.2478-0.2487 0.0829 (  6847 PWs)   bands (ev):

   -44.9939 -21.6420 -21.6095 -21.5787 -13.9312  -5.9626  -5.2676  -5.1614
     0.8872   0.9842   1.3830   7.0312   7.4986   7.8210   8.1519   8.3834
     8.9915   9.6240   9.7405  10.1631  13.6215  13.7778  13.9810  15.9364

          k = 0.4130-0.2487 0.0829 (  6833 PWs)   bands (ev):

   -44.9933 -21.6702 -21.6078 -21.5774 -13.8792  -5.9568  -5.1791  -5.1215
     0.8802   1.0827   1.3110   6.5191   7.0534   7.5228   7.8550   8.2168
     9.1119   9.4248   9.6587  10.1308  13.7051  14.4134  14.5002  16.0216

          k = 0.2478 0.4145 0.0829 (  6833 PWs)   bands (ev):

   -44.9933 -21.6403 -21.6386 -21.5774 -13.8774  -5.9830  -5.2190  -5.0513
     0.8972   1.0638   1.3111   6.5610   7.1236   7.4372   7.8254   8.2535
     9.0485   9.4228   9.6254  10.1386  13.7850  14.3709  14.5072  16.0380

          k = 0.4130-0.4145 0.0829 (  6854 PWs)   bands (ev):

   -44.9927 -21.6681 -21.6366 -21.5762 -13.8363  -5.6915  -5.2356  -5.1367
     0.8523   0.9097   1.2757   6.3695   6.6238   6.8519   7.7943   7.9493
     8.8749   9.6898   9.8560  10.4806  14.3965  14.4510  14.8021  16.2075

          k = 0.4130-0.2487 0.2487 (  6839 PWs)   bands (ev):

   -44.9927 -21.6683 -21.6067 -21.6060 -13.8397  -5.7006  -5.1514  -5.0999
     0.5424   0.7605   1.1896   6.5014   7.0853   7.4992   7.6165   8.2424
     8.4319   9.7758  10.0456  10.0758  14.1788  14.5714  14.6285  17.0996

          k = 0.4130-0.4145 0.2487 (  6851 PWs)   bands (ev):

   -44.9921 -21.6664 -21.6350 -21.6050 -13.7994  -5.4272  -5.1459  -5.0616
     0.4365   0.4967   0.8231   6.3764   6.8168   7.3418   7.6039   8.1620
     8.2637  10.0034  10.1332  10.4741  14.6857  14.7064  14.9201  17.4130

     highest occupied, lowest unoccupied level (ev):    10.5664   12.8138

!    total energy              =    -264.80621618 Ry
     Harris-Foulkes estimate   =    -264.80621618 Ry
     estimated scf accuracy    <          1.7E-13 Ry

     The total energy is the sum of the following terms:

     one-electron contribution =     -70.37944849 Ry
     hartree contribution      =      58.74214738 Ry
     xc contribution           =     -42.74442936 Ry
     ewald contribution        =    -210.42448572 Ry

     convergence has been achieved in  13 iterations

     Forces acting on atoms (cartesian axes, Ry/au):

     atom    1 type  3   force =     0.01333152    0.00000000    0.00000000
     atom    2 type  2   force =    -0.01050556    0.00000000    0.00000000
     atom    3 type  1   force =    -0.00848060    0.00000000    0.00000000
     atom    4 type  1   force =     0.00282732    0.00000000    0.00000000
     atom    5 type  1   force =     0.00282732    0.00000000    0.00000000

     Total force =     0.019391     Total SCF correction =     0.000001


     Computing stress (Cartesian axis) and pressure

          total   stress  (Ry/bohr**3)                   (kbar)     P=   -2.87
   0.00001888   0.00000000   0.00000000          2.78      0.00      0.00
   0.00000000  -0.00003875   0.00000000          0.00     -5.70      0.00
   0.00000000   0.00000000  -0.00003875          0.00      0.00     -5.70


     number of scf cycles    =   2
     number of bfgs steps    =   1

     enthalpy old            =    -264.8045449308 Ry
     enthalpy new            =    -264.8062161846 Ry

     CASE: enthalpy_new < enthalpy_old

     new trust radius        =       0.0187686368 bohr
     new conv_thr            =            1.3E-13 Ry

     new unit-cell volume =    413.65447 a.u.^3 (    61.29727 Ang^3 )
     density =      6.31683 g/cm^3

CELL_PARAMETERS (alat=  7.40000000)
   1.010902965   0.000000000   0.000000000
   0.000000000   1.004885426   0.000000000
   0.000000000   0.000000000   1.004885426

ATOMIC_POSITIONS (crystal)
Ba       0.004955582   0.000000000   0.000000000
Ti       0.524989273   0.500000000   0.500000000
O       -0.001724503   0.500000000   0.500000000
O        0.500889824   0.000000000   0.500000000
O        0.500889824   0.500000000   0.000000000



     Writing output data file bto.save
     NEW-OLD atomic charge density approx. for the potential
     extrapolated charge   40.04147, renormalised to   40.00000

     total cpu time spent up to now is       26.1 secs

     per-process dynamical memory:    78.0 Mb

     Self-consistent Calculation

     iteration #  1     ecut=   100.00 Ry     beta=0.60
     Davidson diagonalization with overlap
     ethr =  1.00E-06,  avg # of iterations =  5.5

     total cpu time spent up to now is       26.8 secs

     total energy              =    -264.80474524 Ry
     Harris-Foulkes estimate   =    -264.74476352 Ry
     estimated scf accuracy    <       0.00536200 Ry

     iteration #  2     ecut=   100.00 Ry     beta=0.60
     Davidson diagonalization with overlap
     ethr =  1.34E-05,  avg # of iterations =  3.3

     total cpu time spent up to now is       27.2 secs

     total energy              =    -264.80595121 Ry
     Harris-Foulkes estimate   =    -264.80723330 Ry
     estimated scf accuracy    <       0.00231240 Ry

     iteration #  3     ecut=   100.00 Ry     beta=0.60
     Davidson diagonalization with overlap
     ethr =  5.78E-06,  avg # of iterations =  3.4

     total cpu time spent up to now is       27.7 secs

     total energy              =    -264.80642457 Ry
     Harris-Foulkes estimate   =    -264.80688638 Ry
     estimated scf accuracy    <       0.00127464 Ry

     iteration #  4     ecut=   100.00 Ry     beta=0.60
     Davidson diagonalization with overlap
     ethr =  3.19E-06,  avg # of iterations =  2.9

     total cpu time spent up to now is       28.0 secs

     total energy              =    -264.80664515 Ry
     Harris-Foulkes estimate   =    -264.80665125 Ry
     estimated scf accuracy    <       0.00002097 Ry

     iteration #  5     ecut=   100.00 Ry     beta=0.60
     Davidson diagonalization with overlap
     ethr =  5.24E-08,  avg # of iterations =  3.9

     total cpu time spent up to now is       28.6 secs

     total energy              =    -264.80665842 Ry
     Harris-Foulkes estimate   =    -264.80666245 Ry
     estimated scf accuracy    <       0.00001036 Ry

     iteration #  6     ecut=   100.00 Ry     beta=0.60
     Davidson diagonalization with overlap
     ethr =  2.59E-08,  avg # of iterations =  3.0

     total cpu time spent up to now is       29.0 secs

     total energy              =    -264.80665970 Ry
     Harris-Foulkes estimate   =    -264.80666068 Ry
     estimated scf accuracy    <       0.00000231 Ry

     iteration #  7     ecut=   100.00 Ry     beta=0.60
     Davidson diagonalization with overlap
     ethr =  5.77E-09,  avg # of iterations =  3.6

     total cpu time spent up to now is       29.4 secs

     total energy              =    -264.80666025 Ry
     Harris-Foulkes estimate   =    -264.80666033 Ry
     estimated scf accuracy    <       0.00000021 Ry

     iteration #  8     ecut=   100.00 Ry     beta=0.60
     Davidson diagonalization with overlap
     ethr =  5.25E-10,  avg # of iterations =  4.8

     total cpu time spent up to now is       29.9 secs

     total energy              =    -264.80666034 Ry
     Harris-Foulkes estimate   =    -264.80666035 Ry
     estimated scf accuracy    <          5.6E-09 Ry

     iteration #  9     ecut=   100.00 Ry     beta=0.60
     Davidson diagonalization with overlap
     ethr =  1.39E-11,  avg # of iterations =  4.8

     total cpu time spent up to now is       30.5 secs

     total energy              =    -264.80666035 Ry
     Harris-Foulkes estimate   =    -264.80666035 Ry
     estimated scf accuracy    <          8.6E-10 Ry

     iteration # 10     ecut=   100.00 Ry     beta=0.60
     Davidson diagonalization with overlap
     ethr =  2.16E-12,  avg # of iterations =  3.8

     total cpu time spent up to now is       31.0 secs

          k = 0.0824 0.0829 0.0829     band energies (ev):

   -45.0264 -21.6410 -21.6123 -21.6120 -14.0677  -6.0138  -5.3196  -5.2779
     0.8898   0.8934   1.0390   8.0698   8.2776   8.2803   9.0086   9.0344
     9.4631   9.9546  10.3391  10.3517  12.7907  12.9081  12.9350  15.3922

          k = 0.0824 0.0829 0.2488     band energies (ev):

   -45.0258 -21.6424 -21.6395 -21.6109 -14.0052  -6.0909  -5.2868  -5.1832
     0.9435   0.9581   1.2489   7.3482   7.9899   8.0925   8.5585   8.6136
     9.3127   9.3592   9.9833  10.1023  12.9687  13.5871  13.6143  15.4191

          k = 0.0824 0.0829 0.4146     band energies (ev):

   -45.0252 -21.6720 -21.6384 -21.6095 -13.9410  -6.2500  -5.2618  -4.9714
     0.9982   1.1246   1.3487   6.6226   7.7526   7.8341   8.0306   8.3481
     9.1537   9.2603   9.5768   9.8387  13.0315  14.3156  14.3421  15.4074

          k = 0.0824 0.2488 0.2488     band energies (ev):

   -45.0252 -21.6414 -21.6398 -21.6381 -13.9530  -5.9988  -5.2381  -5.2003
     0.8520   0.9622   1.3547   7.0161   7.5623   7.7652   8.1439   8.3890
     8.8155   9.6069   9.7412  10.1834  13.5699  13.7367  13.9412  15.8837

          k = 0.0824 0.2488 0.4146     band energies (ev):

   -45.0246 -21.6698 -21.6390 -21.6369 -13.8994  -6.0081  -5.2103  -5.0758
     0.8570   1.0370   1.2797   6.5319   7.1380   7.4153   7.8561   8.2089
     8.9560   9.3982   9.5869  10.1782  13.6964  14.3702  14.4700  15.9450

          k = 0.0824 0.4146 0.4146     band energies (ev):

   -45.0240 -21.6678 -21.6675 -21.6359 -13.8569  -5.7512  -5.1942  -5.1489
     0.8073   0.8603   1.2510   6.3516   6.6587   6.7991   7.8669   7.9019
     8.8169   9.6008   9.7606  10.5437  14.3762  14.4220  14.7780  16.0616

          k = 0.2473 0.2488 0.2488     band energies (ev):

   -45.0247 -21.6660 -21.6395 -21.6385 -13.9093  -5.8205  -5.2280  -5.1829
     0.6871   0.7068   1.4201   6.7858   7.4758   7.5112   8.0748   8.1995
     8.2437   9.8930   9.9096  10.0169  14.0232  14.0634  14.0921  17.1209

          k = 0.2473 0.2488 0.4146     band energies (ev):

   -45.0240 -21.6681 -21.6643 -21.6374 -13.8623  -5.7495  -5.1578  -5.0923
     0.5360   0.7123   1.1665   6.5030   7.1447   7.4604   7.5738   8.1791
     8.3768   9.6885  10.0177  10.1138  14.1683  14.5493  14.5990  17.0447

          k = 0.2473 0.4146 0.4146     band energies (ev):

   -45.0234 -21.6664 -21.6660 -21.6628 -13.8222  -5.4847  -5.1058  -5.0875
     0.4169   0.4505   0.8052   6.3585   6.8027   7.3303   7.5960   8.1410
     8.2234   9.9305  10.0413  10.5394  14.6745  14.6902  14.8941  17.2630

          k = 0.4122 0.4146 0.4146     band energies (ev):

   -45.0229 -21.6897 -21.6647 -21.6646 -13.7868  -5.1742  -5.0497  -5.0108
     0.1146   0.1396   0.3100   6.2274   6.8088   6.8089   7.9968   8.2649
     8.2722  10.3973  10.4341  10.5456  15.0086  15.0088  15.0224  17.7760

          k = 0.2473-0.0829 0.0829     band energies (ev):

   -45.0259 -21.6693 -21.6111 -21.6108 -14.0078  -6.0772  -5.2554  -5.2376
     0.9417   0.9632   1.2505   7.3357   7.9817   8.0730   8.5866   8.5988
     9.3406   9.4028  10.0556  10.0845  12.8554  13.6371  13.6546  15.3937

          k = 0.4122-0.0829 0.0829     band energies (ev):

   -45.0253 -21.6973 -21.6098 -21.6096 -13.9463  -6.2293  -5.2325  -5.0405
     0.9906   1.1231   1.3673   6.5956   7.7160   7.8240   8.0800   8.3835
     9.1181   9.2841   9.7416   9.8700  12.9159  14.3253  14.3450  15.3915

          k = 0.2473-0.2488 0.0829     band energies (ev):

   -45.0253 -21.6676 -21.6406 -21.6097 -13.9554  -5.9827  -5.2810  -5.1855
     0.8658   0.9629   1.3582   7.0155   7.4933   7.8003   8.1391   8.3627
     8.9666   9.6087   9.7169  10.1408  13.5933  13.7385  13.9472  15.9040

          k = 0.4122-0.2488 0.0829     band energies (ev):

   -45.0247 -21.6951 -21.6389 -21.6085 -13.9043  -5.9807  -5.2010  -5.1371
     0.8597   1.0608   1.2883   6.5177   7.0566   7.4878   7.8470   8.2015
     9.0854   9.4051   9.6347  10.1133  13.6829  14.3654  14.4588  15.9938

          k = 0.2473 0.4146 0.0829     band energies (ev):

   -45.0247 -21.6700 -21.6657 -21.6084 -13.9016  -5.9993  -5.2350  -5.0748
     0.8751   1.0421   1.2882   6.5331   7.1101   7.4202   7.8235   8.2265
     9.0283   9.4015   9.5996  10.1154  13.7382  14.3504  14.4787  16.0013

          k = 0.4122-0.4146 0.0829     band energies (ev):

   -45.0241 -21.6929 -21.6679 -21.6073 -13.8614  -5.7156  -5.2497  -5.1591
     0.8329   0.8889   1.2540   6.3554   6.6173   6.8286   7.8024   7.9236
     8.8491   9.6609   9.8260  10.4604  14.3703  14.4068  14.7674  16.1781

          k = 0.4122-0.2488 0.2488     band energies (ev):

   -45.0241 -21.6932 -21.6379 -21.6372 -13.8648  -5.7236  -5.1633  -5.1255
     0.5215   0.7415   1.1680   6.4983   7.0840   7.4810   7.5866   8.2178
     8.4008   9.7576  10.0197  10.0630  14.1571  14.5345  14.5875  17.0807

          k = 0.4122-0.4146 0.2488     band energies (ev):

   -45.0235 -21.6913 -21.6663 -21.6361 -13.8244  -5.4488  -5.1603  -5.0847
     0.4164   0.4788   0.8024   6.3618   6.7988   7.3270   7.5840   8.1382
     8.2373   9.9802  10.1084  10.4546  14.6569  14.6771  14.8874  17.3903

     highest occupied, lowest unoccupied level (ev):    10.5456   12.7907

!    total energy              =    -264.80666035 Ry
     Harris-Foulkes estimate   =    -264.80666035 Ry
     estimated scf accuracy    <          2.1E-11 Ry

     The total energy is the sum of the following terms:

     one-electron contribution =     -70.52350790 Ry
     hartree contribution      =      58.77799527 Ry
     xc contribution           =     -42.73879819 Ry
     ewald contribution        =    -210.32233755 Ry
     scf correction            =      -0.00001198 Ry

     iteration # 11     ecut=   100.00 Ry     beta=0.60
     Davidson diagonalization with overlap
     ethr =  1.00E-13,  avg # of iterations =  4.7

     total cpu time spent up to now is       31.6 secs

     total energy              =    -264.80666035 Ry
     Harris-Foulkes estimate   =    -264.80666035 Ry
     estimated scf accuracy    <          1.5E-12 Ry

     iteration # 12     ecut=   100.00 Ry     beta=0.60
     Davidson diagonalization with overlap
     ethr =  1.00E-13,  avg # of iterations =  1.0

     total cpu time spent up to now is       31.9 secs

     End of self-consistent calculation

          k = 0.0824 0.0829 0.0829 (  6850 PWs)   bands (ev):

   -45.0265 -21.6410 -21.6123 -21.6120 -14.0677  -6.0138  -5.3196  -5.2779
     0.8898   0.8934   1.0390   8.0698   8.2776   8.2803   9.0086   9.0344
     9.4631   9.9546  10.3391  10.3517  12.7907  12.9081  12.9350  15.3922

          k = 0.0824 0.0829 0.2488 (  6839 PWs)   bands (ev):

   -45.0258 -21.6424 -21.6395 -21.6109 -14.0052  -6.0909  -5.2868  -5.1832
     0.9435   0.9581   1.2489   7.3482   7.9899   8.0925   8.5585   8.6136
     9.3127   9.3592   9.9833  10.1023  12.9687  13.5871  13.6143  15.4191

          k = 0.0824 0.0829 0.4146 (  6839 PWs)   bands (ev):

   -45.0252 -21.6720 -21.6384 -21.6096 -13.9410  -6.2500  -5.2618  -4.9714
     0.9982   1.1246   1.3487   6.6226   7.7526   7.8341   8.0306   8.3481
     9.1537   9.2603   9.5768   9.8387  13.0314  14.3156  14.3421  15.4074

          k = 0.0824 0.2488 0.2488 (  6847 PWs)   bands (ev):

   -45.0252 -21.6415 -21.6398 -21.6381 -13.9530  -5.9988  -5.2382  -5.2003
     0.8520   0.9622   1.3547   7.0161   7.5623   7.7652   8.1439   8.3890
     8.8155   9.6069   9.7412  10.1833  13.5699  13.7367  13.9412  15.8837

          k = 0.0824 0.2488 0.4146 (  6833 PWs)   bands (ev):

   -45.0246 -21.6698 -21.6390 -21.6369 -13.8994  -6.0081  -5.2103  -5.0759
     0.8570   1.0370   1.2797   6.5319   7.1380   7.4153   7.8560   8.2089
     8.9560   9.3982   9.5869  10.1782  13.6964  14.3702  14.4700  15.9450

          k = 0.0824 0.4146 0.4146 (  6854 PWs)   bands (ev):

   -45.0240 -21.6679 -21.6675 -21.6359 -13.8569  -5.7512  -5.1942  -5.1489
     0.8073   0.8603   1.2510   6.3516   6.6587   6.7991   7.8669   7.9019
     8.8169   9.6008   9.7606  10.5437  14.3762  14.4220  14.7780  16.0616

          k = 0.2473 0.2488 0.2488 (  6881 PWs)   bands (ev):

   -45.0247 -21.6660 -21.6395 -21.6385 -13.9093  -5.8205  -5.2280  -5.1830
     0.6871   0.7068   1.4201   6.7858   7.4758   7.5112   8.0748   8.1995
     8.2437   9.8930   9.9096  10.0169  14.0232  14.0634  14.0921  17.1209

          k = 0.2473 0.2488 0.4146 (  6839 PWs)   bands (ev):

   -45.0240 -21.6681 -21.6643 -21.6374 -13.8623  -5.7495  -5.1578  -5.0923
     0.5360   0.7123   1.1665   6.5030   7.1447   7.4604   7.5738   8.1791
     8.3768   9.6885  10.0177  10.1138  14.1683  14.5493  14.5990  17.0447

          k = 0.2473 0.4146 0.4146 (  6851 PWs)   bands (ev):

   -45.0234 -21.6664 -21.6660 -21.6629 -13.8222  -5.4847  -5.1058  -5.0875
     0.4169   0.4505   0.8052   6.3585   6.8027   7.3303   7.5960   8.1410
     8.2234   9.9305  10.0413  10.5394  14.6745  14.6902  14.8941  17.2630

          k = 0.4122 0.4146 0.4146 (  6854 PWs)   bands (ev):

   -45.0229 -21.6897 -21.6647 -21.6646 -13.7868  -5.1742  -5.0497  -5.0108
     0.1146   0.1396   0.3100   6.2274   6.8088   6.8088   7.9968   8.2648
     8.2722  10.3973  10.4341  10.5456  15.0086  15.0087  15.0224  17.7760

          k = 0.2473-0.0829 0.0829 (  6839 PWs)   bands (ev):

   -45.0259 -21.6693 -21.6111 -21.6108 -14.0078  -6.0772  -5.2554  -5.2376
     0.9417   0.9632   1.2505   7.3357   7.9817   8.0730   8.5866   8.5988
     9.3406   9.4028  10.0556  10.0845  12.8554  13.6371  13.6546  15.3936

          k = 0.4122-0.0829 0.0829 (  6839 PWs)   bands (ev):

   -45.0253 -21.6973 -21.6098 -21.6096 -13.9463  -6.2293  -5.2325  -5.0405
     0.9906   1.1231   1.3673   6.5956   7.7160   7.8240   8.0800   8.3835
     9.1181   9.2841   9.7416   9.8699  12.9159  14.3253  14.3450  15.3915

          k = 0.2473-0.2488 0.0829 (  6847 PWs)   bands (ev):

   -45.0253 -21.6676 -21.6406 -21.6097 -13.9554  -5.9827  -5.2810  -5.1855
     0.8658   0.9629   1.3582   7.0155   7.4933   7.8003   8.1391   8.3627
     8.9666   9.6087   9.7169  10.1408  13.5933  13.7385  13.9472  15.9040

          k = 0.4122-0.2488 0.0829 (  6833 PWs)   bands (ev):

   -45.0247 -21.6951 -21.6389 -21.6085 -13.9043  -5.9808  -5.2010  -5.1371
     0.8597   1.0608   1.2883   6.5177   7.0566   7.4878   7.8470   8.2015
     9.0854   9.4051   9.6347  10.1133  13.6829  14.3654  14.4588  15.9938

          k = 0.2473 0.4146 0.0829 (  6833 PWs)   bands (ev):

   -45.0247 -21.6700 -21.6657 -21.6084 -13.9016  -5.9993  -5.2350  -5.0748
     0.8751   1.0421   1.2882   6.5331   7.1101   7.4202   7.8235   8.2265
     9.0283   9.4014   9.5996  10.1154  13.7382  14.3504  14.4787  16.0013

          k = 0.4122-0.4146 0.0829 (  6854 PWs)   bands (ev):

   -45.0241 -21.6929 -21.6679 -21.6073 -13.8614  -5.7156  -5.2497  -5.1591
     0.8329   0.8889   1.2540   6.3554   6.6173   6.8286   7.8024   7.9236
     8.8491   9.6609   9.8260  10.4604  14.3703  14.4068  14.7674  16.1781

          k = 0.4122-0.2488 0.2488 (  6839 PWs)   bands (ev):

   -45.0241 -21.6932 -21.6379 -21.6372 -13.8648  -5.7236  -5.1633  -5.1255
     0.5215   0.7415   1.1680   6.4983   7.0840   7.4810   7.5866   8.2178
     8.4008   9.7576  10.0197  10.0630  14.1571  14.5345  14.5875  17.0807

          k = 0.4122-0.4146 0.2488 (  6851 PWs)   bands (ev):

   -45.0235 -21.6913 -21.6663 -21.6361 -13.8244  -5.4488  -5.1603  -5.0847
     0.4164   0.4788   0.8024   6.3618   6.7988   7.3270   7.5840   8.1382
     8.2373   9.9801  10.1084  10.4546  14.6569  14.6771  14.8874  17.3903

     highest occupied, lowest unoccupied level (ev):    10.5456   12.7907

!    total energy              =    -264.80666035 Ry
     Harris-Foulkes estimate   =    -264.80666035 Ry
     estimated scf accuracy    <          6.1E-14 Ry

     The total energy is the sum of the following terms:

     one-electron contribution =     -70.52351630 Ry
     hartree contribution      =      58.77799135 Ry
     xc contribution           =     -42.73879785 Ry
     ewald contribution        =    -210.32233755 Ry

     convergence has been achieved in  12 iterations

     Forces acting on atoms (cartesian axes, Ry/au):

     atom    1 type  3   force =     0.00940714    0.00000000    0.00000000
     atom    2 type  2   force =    -0.00573419    0.00000000    0.00000000
     atom    3 type  1   force =    -0.00640934    0.00000000    0.00000000
     atom    4 type  1   force =     0.00136819    0.00000000    0.00000000
     atom    5 type  1   force =     0.00136819    0.00000000    0.00000000

     Total force =     0.012892     Total SCF correction =     0.000001


     Computing stress (Cartesian axis) and pressure

          total   stress  (Ry/bohr**3)                   (kbar)     P=   -5.88
  -0.00002732   0.00000000   0.00000000         -4.02      0.00      0.00
   0.00000000  -0.00004626   0.00000000          0.00     -6.80      0.00
   0.00000000   0.00000000  -0.00004626          0.00      0.00     -6.80


     number of scf cycles    =   3
     number of bfgs steps    =   2

     enthalpy old            =    -264.8062161846 Ry
     enthalpy new            =    -264.8066603485 Ry

     CASE: enthalpy_new < enthalpy_old

     new trust radius        =       0.0206868602 bohr
     new conv_thr            =            4.4E-14 Ry

     new unit-cell volume =    413.20760 a.u.^3 (    61.23105 Ang^3 )
     density =      6.32366 g/cm^3

CELL_PARAMETERS (alat=  7.40000000)
   1.011709297   0.000000000   0.000000000
   0.000000000   1.003942172   0.000000000
   0.000000000   0.000000000   1.003942172

ATOMIC_POSITIONS (crystal)
Ba       0.007720953   0.000000000   0.000000000
Ti       0.522965726   0.500000000   0.500000000
[...]
     Davidson diagonalization with overlap
     ethr =  9.64E-06,  avg # of iterations =  4.8

     negative rho (up, down):  1.373E-08 0.000E+00

     total cpu time spent up to now is       97.7 secs

     total energy              =    -264.80676271 Ry
     Harris-Foulkes estimate   =    -264.80808398 Ry
     estimated scf accuracy    <       0.00328316 Ry

     iteration # 24     ecut=   100.00 Ry     beta=0.60
     Davidson diagonalization with overlap
     ethr =  8.21E-06,  avg # of iterations =  2.7

     total cpu time spent up to now is       98.1 secs

     total energy              =    -264.80706427 Ry
     Harris-Foulkes estimate   =    -264.80721902 Ry
     estimated scf accuracy    <       0.00040630 Ry

     iteration # 25     ecut=   100.00 Ry     beta=0.60
     Davidson diagonalization with overlap
     ethr =  1.02E-06,  avg # of iterations =  4.6

     total cpu time spent up to now is       98.6 secs

     total energy              =    -264.80718284 Ry
     Harris-Foulkes estimate   =    -264.80720782 Ry
     estimated scf accuracy    <       0.00005798 Ry

     iteration # 26     ecut=   100.00 Ry     beta=0.60
     Davidson diagonalization with overlap
     ethr =  1.45E-07,  avg # of iterations =  3.1

     negative rho (up, down):  1.120E-08 0.000E+00

     total cpu time spent up to now is       99.0 secs

     total energy              =    -264.80719229 Ry
     Harris-Foulkes estimate   =    -264.80719362 Ry
     estimated scf accuracy    <       0.00000303 Ry

     iteration # 27     ecut=   100.00 Ry     beta=0.60
     Davidson diagonalization with overlap
     ethr =  7.56E-09,  avg # of iterations =  5.0

     negative rho (up, down):  1.144E-08 0.000E+00

     total cpu time spent up to now is       99.6 secs

     total energy              =    -264.80719506 Ry
     Harris-Foulkes estimate   =    -264.80719507 Ry
     estimated scf accuracy    <       0.00000014 Ry

     iteration # 28     ecut=   100.00 Ry     beta=0.60
     Davidson diagonalization with overlap
     ethr =  3.61E-10,  avg # of iterations =  3.5

     negative rho (up, down):  1.155E-08 0.000E+00

     total cpu time spent up to now is      100.1 secs

     total energy              =    -264.80719509 Ry
     Harris-Foulkes estimate   =    -264.80719509 Ry
     estimated scf accuracy    <       0.00000002 Ry

     iteration # 29     ecut=   100.00 Ry     beta=0.60
     Davidson diagonalization with overlap
     ethr =  4.21E-11,  avg # of iterations =  4.3

     negative rho (up, down):  1.155E-08 0.000E+00

     total cpu time spent up to now is      100.6 secs

     total energy              =    -264.80719509 Ry
     Harris-Foulkes estimate   =    -264.80719509 Ry
     estimated scf accuracy    <          2.3E-09 Ry

     iteration # 30     ecut=   100.00 Ry     beta=0.60
     Davidson diagonalization with overlap
     ethr =  5.72E-12,  avg # of iterations =  3.7

     negative rho (up, down):  1.156E-08 0.000E+00

     total cpu time spent up to now is      101.0 secs

          k = 0.0824 0.0831 0.0831     band energies (ev):

   -44.9758 -21.5961 -21.5641 -21.5638 -14.0284  -5.9861  -5.2925  -5.2568
     0.9274   0.9343   1.0795   8.1039   8.3078   8.3201   9.0311   9.0465
     9.4863   9.9730  10.3702  10.3813  12.8390  12.9622  12.9903  15.4795

          k = 0.0824 0.0831 0.2492     band energies (ev):

   -44.9752 -21.5954 -21.5940 -21.5626 -13.9648  -6.0630  -5.2608  -5.1596
     0.9801   0.9992   1.2909   7.3784   8.0202   8.1241   8.5863   8.6244
     9.3338   9.3817  10.0170  10.1294  13.0172  13.6423  13.6668  15.4786

          k = 0.0824 0.0831 0.4153     band energies (ev):

   -44.9746 -21.6251 -21.5933 -21.5613 -13.8993  -6.2246  -5.2352  -4.9436
     1.0357   1.1658   1.3903   6.6422   7.7813   7.8634   8.0515   8.3778
     9.1665   9.2875   9.6035   9.8682  13.0782  14.3746  14.3988  15.4653

          k = 0.0824 0.2492 0.2492     band energies (ev):

   -44.9746 -21.5945 -21.5925 -21.5922 -13.9115  -5.9685  -5.2141  -5.1740
     0.8897   0.9985   1.3973   7.0418   7.5928   7.7896   8.1682   8.3879
     8.8392   9.6454   9.7705  10.2212  13.6144  13.7927  14.0018  15.9332

          k = 0.0824 0.2492 0.4153     band energies (ev):

   -44.9740 -21.6229 -21.5925 -21.5907 -13.8570  -5.9790  -5.1830  -5.0483
     0.8932   1.0743   1.3200   6.5509   7.1535   7.4447   7.8691   8.2204
     8.9791   9.4332   9.6338  10.2123  13.7454  14.4283  14.5329  15.9905

          k = 0.0824 0.4153 0.4153     band energies (ev):

   -44.9733 -21.6209 -21.6205 -21.5908 -13.8137  -5.7179  -5.1673  -5.1207
     0.8429   0.8957   1.2881   6.3711   6.6743   6.8157   7.8726   7.9010
     8.8458   9.6539   9.8154  10.5783  14.4322  14.4811  14.8451  16.0960

          k = 0.2471 0.2492 0.2492     band energies (ev):

   -44.9740 -21.6208 -21.5919 -21.5909 -13.8681  -5.7942  -5.2003  -5.1593
     0.7237   0.7451   1.4634   6.8127   7.5074   7.5427   8.1033   8.2245
     8.2573   9.9330   9.9343  10.0435  14.0713  14.1160  14.1493  17.1344

          k = 0.2471 0.2492 0.4153     band energies (ev):

   -44.9734 -21.6212 -21.6190 -21.5898 -13.8200  -5.7228  -5.1305  -5.0655
     0.5714   0.7494   1.2082   6.5225   7.1652   7.4837   7.6110   8.2065
     8.3963   9.7210  10.0490  10.1430  14.2177  14.6090  14.6576  17.0985

          k = 0.2471 0.4153 0.4153     band energies (ev):

   -44.9728 -21.6195 -21.6191 -21.6174 -13.7791  -5.4536  -5.0794  -5.0597
     0.4511   0.4848   0.8432   6.3781   6.8190   7.3489   7.6297   8.1579
     8.2458   9.9673  10.0824  10.5723  14.7307  14.7482  14.9602  17.2977

          k = 0.4118 0.4153 0.4153     band energies (ev):

   -44.9722 -21.6442 -21.6178 -21.6176 -13.7440  -5.1463  -5.0216  -4.9849
     0.1483   0.1728   0.3491   6.2548   6.8250   6.8404   8.0239   8.2925
     8.3049  10.4229  10.4639  10.5762  15.0638  15.0659  15.0882  17.8099

          k = 0.2471-0.0831 0.0831     band energies (ev):

   -44.9753 -21.6241 -21.5629 -21.5626 -13.9684  -6.0563  -5.2345  -5.2062
     0.9818   1.0041   1.2915   7.3686   8.0220   8.1149   8.6053   8.6141
     9.3669   9.4316  10.0860  10.1198  12.9060  13.6843  13.7005  15.4628

          k = 0.4118-0.0831 0.0831     band energies (ev):

   -44.9747 -21.6519 -21.5616 -21.5614 -13.9068  -6.2114  -5.2119  -5.0089
     1.0299   1.1643   1.4115   6.6336   7.7654   7.8680   8.0909   8.3987
     9.1483   9.3132   9.7765   9.9080  12.9664  14.3680  14.3875  15.4608

          k = 0.2471-0.2492 0.0831     band energies (ev):

   -44.9747 -21.6224 -21.5930 -21.5614 -13.9150  -5.9597  -5.2536  -5.1613
     0.9055   1.0031   1.4006   7.0487   7.5232   7.8295   8.1766   8.3784
     8.9914   9.6364   9.7449  10.1710  13.6431  13.7890  13.9954  15.9735

          k = 0.4118-0.2492 0.0831     band energies (ev):

   -44.9741 -21.6497 -21.5914 -21.5603 -13.8640  -5.9612  -5.1781  -5.1080
     0.8987   1.1028   1.3316   6.5566   7.0945   7.5074   7.8883   8.2174
     9.1148   9.4348   9.6669  10.1430  13.7377  14.4084  14.5029  16.0659

          k = 0.2471 0.4153 0.0831     band energies (ev):

   -44.9740 -21.6231 -21.6204 -21.5602 -13.8602  -5.9765  -5.2085  -5.0475
     0.9138   1.0827   1.3317   6.5549   7.1338   7.4537   7.8597   8.2498
     9.0517   9.4301   9.6241  10.1423  13.7822  14.4094  14.5324  16.0685

          k = 0.4118-0.4153 0.0831     band energies (ev):

   -44.9735 -21.6475 -21.6209 -21.5590 -13.8202  -5.6965  -5.2223  -5.1319
     0.8730   0.9292   1.2982   6.3894   6.6446   6.8554   7.8422   7.9413
     8.8813   9.6870   9.8528  10.4882  14.4225  14.4567  14.8159  16.2500

          k = 0.4118-0.2492 0.2492     band energies (ev):

   -44.9735 -21.6478 -21.5903 -21.5896 -13.8236  -5.7016  -5.1340  -5.1023
     0.5572   0.7807   1.2118   6.5386   7.1106   7.5144   7.6171   8.2379
     8.4247   9.7942  10.0451  10.0916  14.2145  14.5823  14.6340  17.1595

          k = 0.4118-0.4153 0.2492     band energies (ev):

   -44.9728 -21.6458 -21.6193 -21.5885 -13.7825  -5.4260  -5.1318  -5.0585
     0.4509   0.5157   0.8452   6.3921   6.8270   7.3538   7.6154   8.1640
     8.2664  10.0084  10.1375  10.4811  14.7066  14.7375  14.9402  17.4601

     highest occupied, lowest unoccupied level (ev):    10.5783   12.8390

!    total energy              =    -264.80719509 Ry
     Harris-Foulkes estimate   =    -264.80719509 Ry
     estimated scf accuracy    <          1.8E-10 Ry

     The total energy is the sum of the following terms:

     one-electron contribution =     -70.38343525 Ry
     hartree contribution      =      58.76505417 Ry
     xc contribution           =     -42.75001007 Ry
     ewald contribution        =    -210.43873094 Ry
     scf correction            =      -0.00007301 Ry

     iteration # 31     ecut=   100.00 Ry     beta=0.60
     Davidson diagonalization with overlap
     ethr =  4.60E-13,  avg # of iterations =  4.7

     negative rho (up, down):  1.156E-08 0.000E+00

     total cpu time spent up to now is      101.6 secs

     total energy              =    -264.80719509 Ry
     Harris-Foulkes estimate   =    -264.80719509 Ry
     estimated scf accuracy    <          5.3E-12 Ry

     iteration # 32     ecut=   100.00 Ry     beta=0.60
     Davidson diagonalization with overlap
     ethr =  1.00E-13,  avg # of iterations =  1.7

     negative rho (up, down):  1.156E-08 0.000E+00

     total cpu time spent up to now is      101.9 secs

     total energy              =    -264.80719509 Ry
     Harris-Foulkes estimate   =    -264.80719509 Ry
     estimated scf accuracy    <          5.4E-13 Ry

     iteration # 33     ecut=   100.00 Ry     beta=0.60
     Davidson diagonalization with overlap
     ethr =  1.00E-13,  avg # of iterations =  1.0

     negative rho (up, down):  1.156E-08 0.000E+00

     total cpu time spent up to now is      102.2 secs

     total energy              =    -264.80719509 Ry
     Harris-Foulkes estimate   =    -264.80719509 Ry
     estimated scf accuracy    <          2.0E-14 Ry

     iteration # 34     ecut=   100.00 Ry     beta=0.60
     Davidson diagonalization with overlap
     ethr =  1.00E-13,  avg # of iterations =  1.0

     negative rho (up, down):  1.156E-08 0.000E+00

     total cpu time spent up to now is      102.6 secs

     total energy              =    -264.80719509 Ry
     Harris-Foulkes estimate   =    -264.80719509 Ry
     estimated scf accuracy    <          1.2E-14 Ry

     iteration # 35     ecut=   100.00 Ry     beta=0.60
     Davidson diagonalization with overlap
     ethr =  1.00E-13,  avg # of iterations =  1.0

     negative rho (up, down):  1.156E-08 0.000E+00

     total cpu time spent up to now is      102.9 secs

     End of self-consistent calculation

          k = 0.0824 0.0831 0.0831 (  6971 PWs)   bands (ev):

   -44.9759 -21.5961 -21.5642 -21.5638 -14.0283  -5.9861  -5.2925  -5.2568
     0.9274   0.9344   1.0795   8.1039   8.3078   8.3201   9.0311   9.0465
     9.4863   9.9730  10.3702  10.3813  12.8390  12.9622  12.9902  15.4793

          k = 0.0824 0.0831 0.2492 (  6961 PWs)   bands (ev):

   -44.9753 -21.5955 -21.5940 -21.5627 -13.9647  -6.0630  -5.2608  -5.1596
     0.9801   0.9992   1.2909   7.3784   8.0202   8.1241   8.5863   8.6244
     9.3337   9.3816  10.0170  10.1293  13.0172  13.6423  13.6668  15.4785

          k = 0.0824 0.0831 0.4153 (  6960 PWs)   bands (ev):

   -44.9746 -21.6251 -21.5934 -21.5613 -13.8992  -6.2246  -5.2352  -4.9436
     1.0358   1.1658   1.3904   6.6422   7.7813   7.8634   8.0515   8.3778
     9.1665   9.2875   9.6035   9.8682  13.0782  14.3746  14.3988  15.4652

          k = 0.0824 0.2492 0.2492 (  6958 PWs)   bands (ev):

   -44.9746 -21.5946 -21.5925 -21.5923 -13.9115  -5.9685  -5.2142  -5.1740
     0.8898   0.9985   1.3973   7.0418   7.5928   7.7896   8.1682   8.3879
     8.8392   9.6454   9.7704  10.2212  13.6144  13.7926  14.0018  15.9332

          k = 0.0824 0.2492 0.4153 (  6961 PWs)   bands (ev):

   -44.9740 -21.6229 -21.5925 -21.5908 -13.8569  -5.9790  -5.1830  -5.0483
     0.8932   1.0743   1.3200   6.5509   7.1535   7.4447   7.8691   8.2204
     8.9791   9.4331   9.6338  10.2123  13.7454  14.4282  14.5329  15.9905

          k = 0.0824 0.4153 0.4153 (  6975 PWs)   bands (ev):

   -44.9734 -21.6209 -21.6206 -21.5909 -13.8136  -5.7179  -5.1673  -5.1208
     0.8429   0.8957   1.2882   6.3711   6.6743   6.8157   7.8726   7.9010
     8.8458   9.6539   9.8154  10.5783  14.4322  14.4811  14.8451  16.0959

          k = 0.2471 0.2492 0.2492 (  6968 PWs)   bands (ev):

   -44.9741 -21.6208 -21.5919 -21.5909 -13.8680  -5.7942  -5.2003  -5.1593
     0.7238   0.7451   1.4635   6.8127   7.5074   7.5427   8.1033   8.2244
     8.2573   9.9330   9.9343  10.0435  14.0713  14.1160  14.1493  17.1343

          k = 0.2471 0.2492 0.4153 (  6976 PWs)   bands (ev):

   -44.9735 -21.6212 -21.6190 -21.5898 -13.8200  -5.7228  -5.1305  -5.0655
     0.5715   0.7494   1.2083   6.5225   7.1651   7.4837   7.6110   8.2065
     8.3963   9.7210  10.0489  10.1430  14.2177  14.6089  14.6576  17.0985

          k = 0.2471 0.4153 0.4153 (  6991 PWs)   bands (ev):

   -44.9728 -21.6195 -21.6191 -21.6175 -13.7791  -5.4536  -5.0794  -5.0597
     0.4511   0.4849   0.8433   6.3781   6.8190   7.3489   7.6297   8.1579
     8.2457   9.9673  10.0823  10.5723  14.7307  14.7481  14.9602  17.2977

          k = 0.4118 0.4153 0.4153 (  6963 PWs)   bands (ev):

   -44.9723 -21.6442 -21.6178 -21.6176 -13.7440  -5.1463  -5.0216  -4.9849
     0.1483   0.1728   0.3492   6.2548   6.8250   6.8404   8.0239   8.2925
     8.3049  10.4229  10.4638  10.5762  15.0638  15.0658  15.0882  17.8098

          k = 0.2471-0.0831 0.0831 (  6959 PWs)   bands (ev):

   -44.9753 -21.6242 -21.5629 -21.5627 -13.9684  -6.0563  -5.2345  -5.2062
     0.9818   1.0041   1.2915   7.3686   8.0220   8.1149   8.6053   8.6140
     9.3668   9.4316  10.0860  10.1198  12.9059  13.6843  13.7004  15.4628

          k = 0.4118-0.0831 0.0831 (  6975 PWs)   bands (ev):

   -44.9748 -21.6519 -21.5616 -21.5615 -13.9068  -6.2114  -5.2119  -5.0089
     1.0299   1.1644   1.4116   6.6336   7.7654   7.8680   8.0909   8.3987
     9.1483   9.3132   9.7765   9.9079  12.9663  14.3680  14.3875  15.4608

          k = 0.2471-0.2492 0.0831 (  6962 PWs)   bands (ev):

   -44.9747 -21.6224 -21.5930 -21.5615 -13.9149  -5.9597  -5.2536  -5.1613
     0.9055   1.0032   1.4006   7.0487   7.5231   7.8295   8.1765   8.3784
     8.9913   9.6364   9.7449  10.1710  13.6431  13.7889  13.9953  15.9735

          k = 0.4118-0.2492 0.0831 (  6969 PWs)   bands (ev):

   -44.9742 -21.6497 -21.5914 -21.5603 -13.8640  -5.9612  -5.1781  -5.1080
     0.8987   1.1029   1.3316   6.5566   7.0945   7.5073   7.8883   8.2174
     9.1148   9.4348   9.6668  10.1430  13.7377  14.4083  14.5028  16.0659

          k = 0.2471 0.4153 0.0831 (  6966 PWs)   bands (ev):

   -44.9741 -21.6232 -21.6205 -21.5602 -13.8601  -5.9765  -5.2085  -5.0475
     0.9139   1.0827   1.3317   6.5549   7.1338   7.4537   7.8597   8.2498
     9.0516   9.4301   9.6241  10.1423  13.7821  14.4094  14.5323  16.0685

          k = 0.4118-0.4153 0.0831 (  6979 PWs)   bands (ev):

   -44.9735 -21.6475 -21.6210 -21.5591 -13.8202  -5.6966  -5.2224  -5.1320
     0.8730   0.9292   1.2983   6.3894   6.6446   6.8553   7.8422   7.9413
     8.8813   9.6870   9.8528  10.4882  14.4225  14.4566  14.8159  16.2500

          k = 0.4118-0.2492 0.2492 (  6970 PWs)   bands (ev):

   -44.9735 -21.6478 -21.5903 -21.5896 -13.8236  -5.7017  -5.1340  -5.1023
     0.5573   0.7808   1.2118   6.5386   7.1106   7.5144   7.6171   8.2379
     8.4247   9.7942  10.0451  10.0916  14.2144  14.5823  14.6340  17.1594

          k = 0.4118-0.4153 0.2492 (  6976 PWs)   bands (ev):

   -44.9729 -21.6459 -21.6194 -21.5885 -13.7824  -5.4260  -5.1319  -5.0585
     0.4509   0.5157   0.8453   6.3920   6.8270   7.3538   7.6153   8.1640
     8.2663  10.0084  10.1375  10.4811  14.7065  14.7375  14.9401  17.4600

     highest occupied, lowest unoccupied level (ev):    10.5783   12.8390

!    total energy              =    -264.80719509 Ry
     Harris-Foulkes estimate   =    -264.80719509 Ry
     estimated scf accuracy    <          4.4E-15 Ry

     The total energy is the sum of the following terms:

     one-electron contribution =     -70.38350745 Ry
     hartree contribution      =      58.76505331 Ry
     xc contribution           =     -42.75001001 Ry
     ewald contribution        =    -210.43873094 Ry

     convergence has been achieved in  35 iterations

     Forces acting on atoms (cartesian axes, Ry/au):

     atom    1 type  3   force =    -0.00024358    0.00000000    0.00000000
     atom    2 type  2   force =     0.00036247    0.00000000    0.00000000
     atom    3 type  1   force =    -0.00073825    0.00000000    0.00000000
     atom    4 type  1   force =     0.00030968    0.00000000    0.00000000
     atom    5 type  1   force =     0.00030968    0.00000000    0.00000000

     Total force =     0.000963     Total SCF correction =     0.000000


     Computing stress (Cartesian axis) and pressure

          total   stress  (Ry/bohr**3)                   (kbar)     P=    0.39
   0.00000746   0.00000000   0.00000000          1.10      0.00      0.00
   0.00000000   0.00000024   0.00000000          0.00      0.04      0.00
   0.00000000   0.00000000   0.00000024          0.00      0.00      0.04


     Writing output data file bto.save
 
     init_run     :      0.85s CPU      0.99s WALL (       2 calls)
     electrons    :     87.39s CPU     89.88s WALL (      12 calls)
     update_pot   :      3.43s CPU      4.11s WALL (      10 calls)
     forces       :      2.00s CPU      2.03s WALL (      12 calls)
     stress       :      4.05s CPU      4.16s WALL (      12 calls)

     Called by init_run:
     wfcinit      :      0.18s CPU      0.19s WALL (       2 calls)
     potinit      :      0.18s CPU      0.19s WALL (       2 calls)

     Called by electrons:
     c_bands      :     68.82s CPU     70.21s WALL (     198 calls)
     sum_band     :     13.53s CPU     13.80s WALL (     198 calls)
     v_of_rho     :      0.25s CPU      0.26s WALL (     209 calls)
     newd         :      4.36s CPU      4.39s WALL (     209 calls)
     mix_rho      :      0.28s CPU      0.29s WALL (     198 calls)

     Called by c_bands:
     init_us_2    :      0.92s CPU      0.94s WALL (    7596 calls)
     cegterg      :     64.64s CPU     65.90s WALL (    3564 calls)

     Called by sum_band:
     sum_band:bec :      0.01s CPU      0.04s WALL (    3564 calls)
     addusdens    :      4.93s CPU      4.96s WALL (     198 calls)

     Called by *egterg:
     h_psi        :     38.66s CPU     39.68s WALL (   14920 calls)
     s_psi        :      1.26s CPU      1.19s WALL (   14920 calls)
     g_psi        :      0.18s CPU      0.23s WALL (   11320 calls)
     cdiaghg      :     15.26s CPU     15.29s WALL (   14686 calls)

     Called by h_psi:
     h_psi:pot    :     38.59s CPU     39.47s WALL (   14920 calls)
     h_psi:calbec :      2.40s CPU      2.36s WALL (   14920 calls)
     vloc_psi     :     34.92s CPU     35.77s WALL (   14920 calls)
     add_vuspsi   :      1.25s CPU      1.31s WALL (   14920 calls)

     General routines
     calbec       :      3.43s CPU      3.35s WALL (   19564 calls)
     fft          :      0.81s CPU      0.88s WALL (    1907 calls)
     ffts         :      0.05s CPU      0.05s WALL (     407 calls)
     fftw         :     37.56s CPU     37.30s WALL (  563316 calls)
     interpolate  :      0.23s CPU      0.23s WALL (     407 calls)
     davcio       :      0.00s CPU      0.05s WALL (      36 calls)
 
     Parallel routines
     fft_scatter  :     22.01s CPU     20.46s WALL (  565630 calls)
 
     PWSCF        :  1m38.85s CPU     1m43.45s WALL

 
   This run was terminated on:  14:12: 7   5Jan2018            

=------------------------------------------------------------------------------=
   JOB DONE.
=------------------------------------------------------------------------------=
