
     Program PWSCF v.6.1 (svn rev. 13369) starts on 31Dec2017 at 11: 9:15 

     This program is part of the open-source Quantum ESPRESSO suite
     for quantum simulation of materials; please cite
         "P. Giannozzi et al., J. Phys.:Condens. Matter 21 395502 (2009);
          URL http://www.quantum-espresso.org", 
     in publications or presentations arising from this work. More details at
     http://www.quantum-espresso.org/quote

     Parallel version (MPI), running on    28 processors
     R & G space division:  proc/nbgrp/npool/nimage =      28
     Waiting for input...
     Reading input from standard input

     Current dimensions of program PWSCF are:
     Max number of different atomic species (ntypx) = 10
     Max number of k-points (npk) =  40000
     Max angular momentum in pseudopotentials (lmaxx) =  3
               file O.pbe-rrkjus.UPF: wavefunction(s)  2S renormalized

     Subspace diagonalization in iterative solution of the eigenvalue problem:
     a serial algorithm will be used

 
     Parallelization info
     --------------------
     sticks:   dense  smooth     PW     G-vecs:    dense   smooth      PW
     Min          62      31      9                 1956      691     110
     Max          63      32     10                 1961      694     113
     Sum        1749     877    261                54795    19381    3119
 

     Title: 
     cubic BaTiO3 at 7.40 lattice parameter. xc=PZ                              


     bravais-lattice index     =            1
     lattice parameter (alat)  =       7.4000  a.u.
     unit-cell volume          =     405.2240 (a.u.)^3
     number of atoms/cell      =            5
     number of atomic types    =            3
     number of electrons       =        40.00
     number of Kohn-Sham states=           24
     kinetic-energy cutoff     =      50.0000  Ry
     charge density cutoff     =     400.0000  Ry
     convergence threshold     =      1.0E-12
     mixing beta               =       0.6000
     number of iterations used =            8  plain     mixing
     Exchange-correlation      =  SLA  PW   PBE  PBE ( 1  4  3  4 0 0)

     celldm(1)=   7.400000  celldm(2)=   0.000000  celldm(3)=   0.000000
     celldm(4)=   0.000000  celldm(5)=   0.000000  celldm(6)=   0.000000

     crystal axes: (cart. coord. in units of alat)
               a(1) = (   1.000000   0.000000   0.000000 )  
               a(2) = (   0.000000   1.000000   0.000000 )  
               a(3) = (   0.000000   0.000000   1.000000 )  

     reciprocal axes: (cart. coord. in units 2 pi/alat)
               b(1) = (  1.000000  0.000000  0.000000 )  
               b(2) = (  0.000000  1.000000  0.000000 )  
               b(3) = (  0.000000  0.000000  1.000000 )  


     PseudoPot. # 1 for O  read from file:
     ../../PSP_DIR/O.pbe-rrkjus.UPF
     MD5 check sum: 390ba29e75625707450f3bd3f0eb6be9
     Pseudo is Ultrasoft, Zval =  6.0
     Generated by new atomic code, or converted to UPF format
     Using radial grid of 1269 points,  4 beta functions with: 
                l(1) =   0
                l(2) =   0
                l(3) =   1
                l(4) =   1
     Q(r) pseudized with 0 coefficients 


     PseudoPot. # 2 for Ti read from file:
     ../../PSP_DIR/Ti.pbe-sp-van_ak.UPF
     MD5 check sum: 8e4df49b7f0d34bbd5052bf3f5ea0213
     Pseudo is Ultrasoft, Zval = 12.0
     Generated by new atomic code, or converted to UPF format
     Using radial grid of  851 points,  6 beta functions with: 
                l(1) =   0
                l(2) =   0
                l(3) =   1
                l(4) =   1
                l(5) =   2
                l(6) =   2
     Q(r) pseudized with  8 coefficients,  rinner =    1.000   1.000   1.000
                                                       1.000   1.000

     PseudoPot. # 3 for Ba read from file:
     ../../PSP_DIR/Ba.pbe-nsp-van.UPF
     MD5 check sum: a011de417d3466d8e94df216395bc359
     Pseudo is Ultrasoft + core correction, Zval = 10.0
     Generated by new atomic code, or converted to UPF format
     Using radial grid of  907 points,  6 beta functions with: 
                l(1) =   0
                l(2) =   0
                l(3) =   1
                l(4) =   1
                l(5) =   2
                l(6) =   2
     Q(r) pseudized with  6 coefficients,  rinner =    1.200   1.200   1.200
                                                       1.200   1.200

     atomic species   valence    mass     pseudopotential
        O              6.00    15.99000     O ( 1.00)
        Ti            12.00    47.88000     Ti( 1.00)
        Ba            10.00   137.33000     Ba( 1.00)

     48 Sym. Ops., with inversion, found



   Cartesian axes

     site n.     atom                  positions (alat units)
         1           Ba  tau(   1) = (   0.0000000   0.0000000   0.0000000  )
         2           Ti  tau(   2) = (   0.5000000   0.5000000   0.5000000  )
         3           O   tau(   3) = (   0.0000000   0.5000000   0.5000000  )
         4           O   tau(   4) = (   0.5000000   0.0000000   0.5000000  )
         5           O   tau(   5) = (   0.5000000   0.5000000   0.0000000  )

     number of k points=    20
                       cart. coord. in units 2pi/alat
        k(    1) = (   0.0625000   0.0625000   0.0625000), wk =   0.0312500
        k(    2) = (   0.0625000   0.0625000   0.1875000), wk =   0.0937500
        k(    3) = (   0.0625000   0.0625000   0.3125000), wk =   0.0937500
        k(    4) = (   0.0625000   0.0625000   0.4375000), wk =   0.0937500
        k(    5) = (   0.0625000   0.1875000   0.1875000), wk =   0.0937500
        k(    6) = (   0.0625000   0.1875000   0.3125000), wk =   0.1875000
        k(    7) = (   0.0625000   0.1875000   0.4375000), wk =   0.1875000
        k(    8) = (   0.0625000   0.3125000   0.3125000), wk =   0.0937500
        k(    9) = (   0.0625000   0.3125000   0.4375000), wk =   0.1875000
        k(   10) = (   0.0625000   0.4375000   0.4375000), wk =   0.0937500
        k(   11) = (   0.1875000   0.1875000   0.1875000), wk =   0.0312500
        k(   12) = (   0.1875000   0.1875000   0.3125000), wk =   0.0937500
        k(   13) = (   0.1875000   0.1875000   0.4375000), wk =   0.0937500
        k(   14) = (   0.1875000   0.3125000   0.3125000), wk =   0.0937500
        k(   15) = (   0.1875000   0.3125000   0.4375000), wk =   0.1875000
        k(   16) = (   0.1875000   0.4375000   0.4375000), wk =   0.0937500
        k(   17) = (   0.3125000   0.3125000   0.3125000), wk =   0.0312500
        k(   18) = (   0.3125000   0.3125000   0.4375000), wk =   0.0937500
        k(   19) = (   0.3125000   0.4375000   0.4375000), wk =   0.0937500
        k(   20) = (   0.4375000   0.4375000   0.4375000), wk =   0.0312500

     Dense  grid:    54795 G-vectors     FFT dimensions: (  48,  48,  48)

     Smooth grid:    19381 G-vectors     FFT dimensions: (  36,  36,  36)

     Estimated max dynamical RAM per process >       2.45MB

     Estimated total allocated dynamical RAM >      68.53MB

     Initial potential from superposition of free atoms

     starting charge   38.98495, renormalised to   40.00000
     Starting wfc are   35 randomized atomic wfcs

     total cpu time spent up to now is        0.4 secs

     per-process dynamical memory:    34.8 Mb

     Self-consistent Calculation

     iteration #  1     ecut=    50.00 Ry     beta=0.60
     Davidson diagonalization with overlap
     ethr =  1.00E-02,  avg # of iterations =  2.5

     total cpu time spent up to now is        0.7 secs

     total energy              =    -302.90608822 Ry
     Harris-Foulkes estimate   =    -303.47558910 Ry
     estimated scf accuracy    <       0.79489367 Ry

     iteration #  2     ecut=    50.00 Ry     beta=0.60
     Davidson diagonalization with overlap
     ethr =  1.99E-03,  avg # of iterations =  4.0

     total cpu time spent up to now is        1.0 secs

     total energy              =    -302.37176460 Ry
     Harris-Foulkes estimate   =    -303.83218321 Ry
     estimated scf accuracy    <       5.48862759 Ry

     iteration #  3     ecut=    50.00 Ry     beta=0.60
     Davidson diagonalization with overlap
     ethr =  1.99E-03,  avg # of iterations =  3.2

     total cpu time spent up to now is        1.4 secs

     total energy              =    -303.30998765 Ry
     Harris-Foulkes estimate   =    -303.35401038 Ry
     estimated scf accuracy    <       0.16556849 Ry

     iteration #  4     ecut=    50.00 Ry     beta=0.60
     Davidson diagonalization with overlap
     ethr =  4.14E-04,  avg # of iterations =  1.6

     total cpu time spent up to now is        1.6 secs

     total energy              =    -303.29735440 Ry
     Harris-Foulkes estimate   =    -303.31838119 Ry
     estimated scf accuracy    <       0.06082793 Ry

     iteration #  5     ecut=    50.00 Ry     beta=0.60
     Davidson diagonalization with overlap
     ethr =  1.52E-04,  avg # of iterations =  3.0

     total cpu time spent up to now is        1.9 secs

     total energy              =    -303.30981275 Ry
     Harris-Foulkes estimate   =    -303.30978021 Ry
     estimated scf accuracy    <       0.00037262 Ry

     iteration #  6     ecut=    50.00 Ry     beta=0.60
     Davidson diagonalization with overlap
     ethr =  9.32E-07,  avg # of iterations =  4.2

     total cpu time spent up to now is        2.3 secs

     total energy              =    -303.30982223 Ry
     Harris-Foulkes estimate   =    -303.31004025 Ry
     estimated scf accuracy    <       0.00043449 Ry

     iteration #  7     ecut=    50.00 Ry     beta=0.60
     Davidson diagonalization with overlap
     ethr =  9.32E-07,  avg # of iterations =  3.1

     total cpu time spent up to now is        2.6 secs

     total energy              =    -303.30992997 Ry
     Harris-Foulkes estimate   =    -303.30994436 Ry
     estimated scf accuracy    <       0.00004105 Ry

     iteration #  8     ecut=    50.00 Ry     beta=0.60
     Davidson diagonalization with overlap
     ethr =  1.03E-07,  avg # of iterations =  2.8

     total cpu time spent up to now is        2.8 secs

     total energy              =    -303.30993468 Ry
     Harris-Foulkes estimate   =    -303.30993549 Ry
     estimated scf accuracy    <       0.00000170 Ry

     iteration #  9     ecut=    50.00 Ry     beta=0.60
     Davidson diagonalization with overlap
     ethr =  4.25E-09,  avg # of iterations =  3.2

     total cpu time spent up to now is        3.1 secs

     total energy              =    -303.30993541 Ry
     Harris-Foulkes estimate   =    -303.30993541 Ry
     estimated scf accuracy    <       0.00000002 Ry

     iteration # 10     ecut=    50.00 Ry     beta=0.60
     Davidson diagonalization with overlap
     ethr =  6.25E-11,  avg # of iterations =  3.1

     total cpu time spent up to now is        3.5 secs

          k = 0.0625 0.0625 0.0625     band energies (ev):

   -45.1108 -21.3813 -21.3810 -21.3810 -13.1663  -5.7351  -5.0955  -5.0955
     1.6087   1.6087   1.6953   8.7539   8.8767   8.8767   9.6417   9.6417
     9.8715  10.8189  11.0055  11.0055  13.2775  13.3135  13.3135  15.8035

          k = 0.0625 0.0625 0.1875     band energies (ev):

   -45.1104 -21.4006 -21.3803 -21.3802 -13.1212  -5.7793  -5.0870  -5.0399
     1.6449   1.6533   1.8512   8.2658   8.7284   8.7687   9.3197   9.3899
     9.8121  10.2511  10.7969  10.8010  13.3233  13.8336  13.8348  15.8065

          k = 0.0625 0.0625 0.3125     band energies (ev):

   -45.1098 -21.4280 -21.3792 -21.3790 -13.0558  -5.9156  -5.0749  -4.8702
     1.7182   1.7524   2.0123   7.5634   8.4960   8.5461   9.0242   9.1004
     9.6368   9.8316  10.5366  10.5625  13.3604  14.5062  14.5137  15.8074

          k = 0.0625 0.0625 0.4375     band energies (ev):

   -45.1094 -21.4472 -21.3783 -21.3782 -13.0083  -6.0348  -5.0664  -4.7143
     1.7654   1.8516   2.1008   7.0734   8.3417   8.3730   8.7071   8.9904
     9.5234   9.7417  10.3378  10.4134  13.3867  14.9620  14.9679  15.8056

          k = 0.0625 0.1875 0.1875     band energies (ev):

   -45.1100 -21.4002 -21.3991 -21.3795 -13.0808  -5.7537  -5.0633  -5.0390
     1.5965   1.6850   1.9893   7.9839   8.4441   8.6715   8.9571   9.1677
     9.8333   9.9853  10.5524  10.7324  13.7922  13.9207  14.1301  16.1749

          k = 0.0625 0.1875 0.3125     band energies (ev):

   -45.1094 -21.4268 -21.3982 -21.3784 -13.0223  -5.8042  -5.0446  -4.9224
     1.6232   1.7554   2.0533   7.4574   8.1456   8.3941   8.6186   8.9644
     9.6202   9.9962  10.2688  10.6175  13.8829  14.5338  14.6384  16.2715

          k = 0.0625 0.1875 0.4375     band energies (ev):

   -45.1090 -21.4459 -21.3973 -21.3776 -12.9799  -5.8810  -5.0295  -4.7897
     1.6645   1.8732   2.0003   7.0229   7.9706   8.1918   8.3788   8.8996
     9.6698   9.9282  10.1356  10.4325  13.9107  14.9804  15.0437  16.2872

          k = 0.0625 0.3125 0.3125     band energies (ev):

   -45.1089 -21.4257 -21.4246 -21.3773 -12.9739  -5.6859  -5.0146  -4.9338
     1.5727   1.7505   2.0388   7.2573   7.7129   7.8234   8.5583   8.6904
     9.5894   9.9718  10.1883  10.8226  14.4923  14.6168  14.9430  16.5247

          k = 0.0625 0.3125 0.4375     band energies (ev):

   -45.1085 -21.4440 -21.4240 -21.3766 -12.9390  -5.6502  -4.9892  -4.8898
     1.5849   1.7221   2.0093   6.9563   7.4216   7.5937   8.3892   8.6310
     9.6005   9.9935  10.1978  10.8731  14.5711  15.0045  15.2444  16.5937

          k = 0.0625 0.4375 0.4375     band energies (ev):

   -45.1081 -21.4428 -21.4426 -21.3758 -12.9095  -5.4758  -4.9779  -4.9482
     1.5542   1.5930   2.0342   6.8209   7.1286   7.2006   8.3977   8.4105
     9.4024  10.2699  10.3611  11.0631  15.0081  15.0300  15.4609  16.6846

          k = 0.1875 0.1875 0.1875     band energies (ev):

   -45.1096 -21.3997 -21.3982 -21.3982 -13.0441  -5.6880  -5.0415  -5.0415
     1.5531   1.5531   2.1506   7.7111   8.3870   8.3870   8.9482   8.9482
     9.3155  10.1870  10.5544  10.5544  14.1428  14.2014  14.2014  16.9960

          k = 0.1875 0.1875 0.3125     band energies (ev):

   -45.1090 -21.4257 -21.3978 -21.3970 -12.9910  -5.6792  -5.0102  -4.9506
     1.4892   1.5628   2.1580   7.3488   7.9486   8.3012   8.5847   8.8335
     9.1874  10.2296  10.3308  10.5300  14.2453  14.6769  14.7123  16.9863

          k = 0.1875 0.1875 0.4375     band energies (ev):

   -45.1086 -21.4447 -21.3968 -21.3962 -12.9526  -5.7232  -4.9877  -4.8273
     1.4426   1.6973   2.0186   6.9908   7.7796   8.2348   8.2552   8.8029
     9.3369  10.1105  10.2492  10.4187  14.2892  15.0677  15.1104  16.9719

          k = 0.1875 0.3125 0.3125     band energies (ev):

   -45.1085 -21.4246 -21.4237 -21.3962 -12.9459  -5.5376  -4.9740  -4.9345
     1.4036   1.4109   2.0655   7.2204   7.6974   7.8838   8.4998   8.7305
     8.9863  10.2163  10.3972  10.7156  14.7351  14.8008  15.0149  17.3945

          k = 0.1875 0.3125 0.4375     band energies (ev):

   -45.1081 -21.4429 -21.4230 -21.3953 -12.9134  -5.4859  -4.9392  -4.8771
     1.3031   1.4630   1.8741   6.9517   7.5643   7.7022   8.3399   8.7405
     9.0177  10.2092  10.3860  10.8165  14.8179  15.1527  15.3121  17.4480

          k = 0.1875 0.4375 0.4375     band energies (ev):

   -45.1077 -21.4417 -21.4416 -21.3945 -12.8851  -5.3049  -4.9241  -4.9007
     1.3019   1.3129   1.6737   6.8219   7.2034   7.6484   8.4577   8.6224
     8.7877  10.4019  10.4832  11.0463  15.1936  15.2086  15.5284  17.5405

          k = 0.3125 0.3125 0.3125     band energies (ev):

   -45.1079 -21.4235 -21.4223 -21.4223 -12.9056  -5.3421  -4.9147  -4.9147
     1.1890   1.1890   1.8308   7.2088   7.6866   7.6866   8.1652   8.7909
     8.7909  10.5528  10.5528  10.6684  15.1125  15.1125  15.1276  18.4071

          k = 0.3125 0.3125 0.4375     band energies (ev):

   -45.1075 -21.4413 -21.4220 -21.4214 -12.8766  -5.2393  -4.8711  -4.8593
     1.0361   1.1717   1.5421   6.9319   7.5584   7.6845   8.0724   8.8364
     8.8666  10.4743  10.7327  10.7970  15.1914  15.3910  15.4248  18.3552

          k = 0.3125 0.4375 0.4375     band energies (ev):

   -45.1072 -21.4403 -21.4402 -21.4208 -12.8501  -5.0496  -4.8442  -4.8317
     0.9539   0.9923   1.2167   6.7907   7.2091   7.6609   8.3163   8.8268
     8.8618  10.7042  10.7509  11.0286  15.4799  15.4829  15.6313  18.4675

          k = 0.4375 0.4375 0.4375     band energies (ev):

   -45.1068 -21.4393 -21.4392 -21.4392 -12.8250  -4.8549  -4.7847  -4.7847
     0.7764   0.7764   0.8826   6.6574   7.2137   7.2137   8.7459   8.9116
     8.9116  10.9899  10.9899  11.0386  15.7079  15.7079  15.7118  18.6278

     highest occupied, lowest unoccupied level (ev):    11.0631   13.2775

!    total energy              =    -303.30993542 Ry
     Harris-Foulkes estimate   =    -303.30993542 Ry
     estimated scf accuracy    <          7.1E-09 Ry

     The total energy is the sum of the following terms:

     one-electron contribution =     -64.95926493 Ry
     hartree contribution      =      57.91755012 Ry
     xc contribution           =     -84.35397593 Ry
     ewald contribution        =    -211.91466263 Ry
     scf correction            =       0.00041796 Ry

     iteration # 11     ecut=    50.00 Ry     beta=0.60
     Davidson diagonalization with overlap
     ethr =  1.77E-11,  avg # of iterations =  3.0

     total cpu time spent up to now is        3.7 secs

     total energy              =    -303.30993542 Ry
     Harris-Foulkes estimate   =    -303.30993542 Ry
     estimated scf accuracy    <          1.4E-09 Ry

     iteration # 12     ecut=    50.00 Ry     beta=0.60
     Davidson diagonalization with overlap
     ethr =  3.44E-12,  avg # of iterations =  3.0

     total cpu time spent up to now is        4.0 secs

     total energy              =    -303.30993542 Ry
     Harris-Foulkes estimate   =    -303.30993542 Ry
     estimated scf accuracy    <          9.1E-12 Ry

     iteration # 13     ecut=    50.00 Ry     beta=0.60
     Davidson diagonalization with overlap
     ethr =  1.00E-13,  avg # of iterations =  3.0

     total cpu time spent up to now is        4.3 secs

     total energy              =    -303.30993542 Ry
     Harris-Foulkes estimate   =    -303.30993542 Ry
     estimated scf accuracy    <          1.5E-12 Ry

     iteration # 14     ecut=    50.00 Ry     beta=0.60
     Davidson diagonalization with overlap
     ethr =  1.00E-13,  avg # of iterations =  1.0

     total cpu time spent up to now is        4.6 secs

     End of self-consistent calculation

          k = 0.0625 0.0625 0.0625 (  2436 PWs)   bands (ev):

   -45.1104 -21.3809 -21.3806 -21.3806 -13.1664  -5.7351  -5.0954  -5.0954
     1.6086   1.6086   1.6952   8.7539   8.8768   8.8768   9.6417   9.6417
     9.8716  10.8189  11.0055  11.0055  13.2778  13.3138  13.3138  15.8038

          k = 0.0625 0.0625 0.1875 (  2432 PWs)   bands (ev):

   -45.1100 -21.4003 -21.3800 -21.3798 -13.1213  -5.7793  -5.0870  -5.0399
     1.6449   1.6532   1.8511   8.2658   8.7284   8.7687   9.3197   9.3899
     9.8122  10.2511  10.7969  10.8010  13.3235  13.8338  13.8351  15.8067

          k = 0.0625 0.0625 0.3125 (  2416 PWs)   bands (ev):

   -45.1095 -21.4277 -21.3788 -21.3787 -13.0559  -5.9156  -5.0749  -4.8701
     1.7181   1.7523   2.0122   7.5634   8.4961   8.5462   9.0242   9.1004
     9.6368   9.8317  10.5366  10.5625  13.3606  14.5065  14.5139  15.8077

          k = 0.0625 0.0625 0.4375 (  2417 PWs)   bands (ev):

   -45.1091 -21.4469 -21.3780 -21.3779 -13.0084  -6.0348  -5.0663  -4.7143
     1.7653   1.8515   2.1008   7.0735   8.3417   8.3730   8.7071   8.9904
     9.5234   9.7417  10.3379  10.4134  13.3870  14.9622  14.9681  15.8059

          k = 0.0625 0.1875 0.1875 (  2420 PWs)   bands (ev):

   -45.1096 -21.3999 -21.3987 -21.3791 -13.0809  -5.7537  -5.0633  -5.0390
     1.5965   1.6849   1.9892   7.9839   8.4441   8.6716   8.9572   9.1677
     9.8333   9.9853  10.5525  10.7325  13.7925  13.9210  14.1303  16.1752

          k = 0.0625 0.1875 0.3125 (  2420 PWs)   bands (ev):

   -45.1091 -21.4265 -21.3979 -21.3780 -13.0224  -5.8041  -5.0446  -4.9224
     1.6231   1.7553   2.0532   7.4574   8.1457   8.3942   8.6186   8.9645
     9.6202   9.9962  10.2689  10.6176  13.8832  14.5341  14.6387  16.2718

          k = 0.0625 0.1875 0.4375 (  2420 PWs)   bands (ev):

   -45.1087 -21.4456 -21.3970 -21.3772 -12.9800  -5.8810  -5.0295  -4.7896
     1.6644   1.8732   2.0003   7.0230   7.9707   8.1919   8.3788   8.8997
     9.6699   9.9282  10.1356  10.4325  13.9110  14.9806  15.0439  16.2875

          k = 0.0625 0.3125 0.3125 (  2420 PWs)   bands (ev):

   -45.1085 -21.4254 -21.4243 -21.3770 -12.9740  -5.6858  -5.0146  -4.9338
     1.5727   1.7504   2.0387   7.2573   7.7130   7.8234   8.5584   8.6904
     9.5895   9.9718  10.1883  10.8226  14.4926  14.6170  14.9432  16.5249

          k = 0.0625 0.3125 0.4375 (  2420 PWs)   bands (ev):

   -45.1081 -21.4437 -21.4236 -21.3762 -12.9391  -5.6501  -4.9891  -4.8898
     1.5848   1.7221   2.0092   6.9564   7.4216   7.5938   8.3892   8.6310
     9.6006   9.9936  10.1978  10.8731  14.5714  15.0047  15.2446  16.5939

          k = 0.0625 0.4375 0.4375 (  2427 PWs)   bands (ev):

   -45.1077 -21.4424 -21.4423 -21.3755 -12.9096  -5.4757  -4.9779  -4.9482
     1.5542   1.5930   2.0342   6.8209   7.1286   7.2007   8.3978   8.4105
     9.4024  10.2699  10.3611  11.0632  15.0084  15.0302  15.4612  16.6848

          k = 0.1875 0.1875 0.1875 (  2415 PWs)   bands (ev):

   -45.1092 -21.3993 -21.3979 -21.3979 -13.0442  -5.6880  -5.0415  -5.0415
     1.5530   1.5530   2.1505   7.7112   8.3871   8.3871   8.9483   8.9483
     9.3155  10.1870  10.5544  10.5544  14.1430  14.2016  14.2016  16.9962

          k = 0.1875 0.1875 0.3125 (  2416 PWs)   bands (ev):

   -45.1087 -21.4254 -21.3975 -21.3967 -12.9911  -5.6792  -5.0102  -4.9505
     1.4892   1.5627   2.1579   7.3488   7.9487   8.3012   8.5847   8.8336
     9.1874  10.2296  10.3309  10.5301  14.2455  14.6771  14.7125  16.9865

          k = 0.1875 0.1875 0.4375 (  2426 PWs)   bands (ev):

   -45.1083 -21.4443 -21.3965 -21.3958 -12.9527  -5.7232  -4.9876  -4.8272
     1.4425   1.6973   2.0186   6.9908   7.7797   8.2348   8.2552   8.8029
     9.3369  10.1105  10.2492  10.4187  14.2895  15.0679  15.1107  16.9722

          k = 0.1875 0.3125 0.3125 (  2419 PWs)   bands (ev):

   -45.1081 -21.4243 -21.4233 -21.3959 -12.9460  -5.5376  -4.9740  -4.9345
     1.4035   1.4109   2.0655   7.2204   7.6975   7.8839   8.4999   8.7305
     8.9864  10.2164  10.3972  10.7156  14.7353  14.8010  15.0152  17.3948

          k = 0.1875 0.3125 0.4375 (  2418 PWs)   bands (ev):

   -45.1077 -21.4426 -21.4227 -21.3950 -12.9134  -5.4858  -4.9392  -4.8770
     1.3031   1.4630   1.8740   6.9518   7.5644   7.7023   8.3400   8.7405
     9.0177  10.2092  10.3860  10.8165  14.8182  15.1529  15.3123  17.4482

          k = 0.1875 0.4375 0.4375 (  2408 PWs)   bands (ev):

   -45.1073 -21.4414 -21.4413 -21.3942 -12.8852  -5.3048  -4.9241  -4.9006
     1.3018   1.3129   1.6736   6.8219   7.2035   7.6484   8.4577   8.6225
     8.7877  10.4019  10.4832  11.0464  15.1939  15.2088  15.5287  17.5407

          k = 0.3125 0.3125 0.3125 (  2416 PWs)   bands (ev):

   -45.1076 -21.4232 -21.4220 -21.4220 -12.9057  -5.3421  -4.9146  -4.9146
     1.1889   1.1889   1.8308   7.2089   7.6867   7.6867   8.1652   8.7910
     8.7910  10.5528  10.5528  10.6684  15.1127  15.1127  15.1279  18.4073

          k = 0.3125 0.3125 0.4375 (  2409 PWs)   bands (ev):

   -45.1072 -21.4410 -21.4217 -21.4211 -12.8766  -5.2392  -4.8711  -4.8592
     1.0361   1.1717   1.5420   6.9319   7.5585   7.6846   8.0724   8.8364
     8.8666  10.4744  10.7327  10.7971  15.1916  15.3913  15.4251  18.3554

          k = 0.3125 0.4375 0.4375 (  2410 PWs)   bands (ev):

   -45.1068 -21.4400 -21.4398 -21.4205 -12.8502  -5.0495  -4.8441  -4.8316
     0.9538   0.9922   1.2167   6.7908   7.2091   7.6610   8.3164   8.8268
     8.8618  10.7042  10.7510  11.0286  15.4802  15.4831  15.6315  18.4676

          k = 0.4375 0.4375 0.4375 (  2416 PWs)   bands (ev):

   -45.1064 -21.4390 -21.4388 -21.4388 -12.8251  -4.8549  -4.7846  -4.7846
     0.7763   0.7763   0.8825   6.6574   7.2138   7.2138   8.7460   8.9116
     8.9116  10.9900  10.9900  11.0387  15.7081  15.7081  15.7121  18.6277

     highest occupied, lowest unoccupied level (ev):    11.0632   13.2778

!    total energy              =    -303.30993542 Ry
     Harris-Foulkes estimate   =    -303.30993542 Ry
     estimated scf accuracy    <          3.2E-13 Ry

     The total energy is the sum of the following terms:

     one-electron contribution =     -64.95888915 Ry
     hartree contribution      =      57.91760098 Ry
     xc contribution           =     -84.35398461 Ry
     ewald contribution        =    -211.91466263 Ry

     convergence has been achieved in  14 iterations

     Forces acting on atoms (cartesian axes, Ry/au):

     atom    1 type  3   force =     0.00000000    0.00000000    0.00000000
     atom    2 type  2   force =     0.00000000    0.00000000   -0.00000000
     atom    3 type  1   force =     0.00000000    0.00000000    0.00000000
     atom    4 type  1   force =     0.00000000    0.00000000    0.00000000
     atom    5 type  1   force =     0.00000000    0.00000000   -0.00000000

     Total force =     0.000000     Total SCF correction =     0.000000


     Computing stress (Cartesian axis) and pressure

          total   stress  (Ry/bohr**3)                   (kbar)     P=   88.59
   0.00060221   0.00000000   0.00000000         88.59      0.00      0.00
   0.00000000   0.00060221   0.00000000          0.00     88.59      0.00
   0.00000000   0.00000000   0.00060221          0.00      0.00     88.59


     Writing output data file bto.save
 
     init_run     :      0.18s CPU      0.20s WALL (       1 calls)
     electrons    :      4.02s CPU      4.16s WALL (       1 calls)
     forces       :      0.05s CPU      0.05s WALL (       1 calls)
     stress       :      0.10s CPU      0.10s WALL (       1 calls)

     Called by init_run:
     wfcinit      :      0.09s CPU      0.10s WALL (       1 calls)
     potinit      :      0.01s CPU      0.01s WALL (       1 calls)

     Called by electrons:
     c_bands      :      3.28s CPU      3.39s WALL (      14 calls)
     sum_band     :      0.54s CPU      0.56s WALL (      14 calls)
     v_of_rho     :      0.03s CPU      0.04s WALL (      15 calls)
     newd         :      0.16s CPU      0.16s WALL (      15 calls)
     mix_rho      :      0.01s CPU      0.01s WALL (      14 calls)

     Called by c_bands:
     init_us_2    :      0.02s CPU      0.03s WALL (     620 calls)
     cegterg      :      3.14s CPU      3.21s WALL (     280 calls)

     Called by sum_band:
     sum_band:bec :      0.00s CPU      0.00s WALL (     280 calls)
     addusdens    :      0.17s CPU      0.17s WALL (      14 calls)

     Called by *egterg:
     h_psi        :      1.68s CPU      1.76s WALL (    1117 calls)
     s_psi        :      0.04s CPU      0.04s WALL (    1117 calls)
     g_psi        :      0.00s CPU      0.01s WALL (     817 calls)
     cdiaghg      :      1.10s CPU      1.05s WALL (    1097 calls)

     Called by h_psi:
     h_psi:pot    :      1.68s CPU      1.75s WALL (    1117 calls)
     h_psi:calbec :      0.12s CPU      0.10s WALL (    1117 calls)
     vloc_psi     :      1.53s CPU      1.61s WALL (    1117 calls)
     add_vuspsi   :      0.03s CPU      0.04s WALL (    1117 calls)

     General routines
     calbec       :      0.16s CPU      0.14s WALL (    1497 calls)
     fft          :      0.02s CPU      0.03s WALL (     261 calls)
     ffts         :      0.00s CPU      0.00s WALL (      29 calls)
     fftw         :      1.68s CPU      1.77s WALL (   42262 calls)
     interpolate  :      0.00s CPU      0.01s WALL (      29 calls)
     davcio       :      0.00s CPU      0.00s WALL (      20 calls)
 
     Parallel routines
     fft_scatter  :      0.99s CPU      1.02s WALL (   42552 calls)
 
     PWSCF        :     4.51s CPU         4.83s WALL

 
   This run was terminated on:  11: 9:20  31Dec2017            

=------------------------------------------------------------------------------=
   JOB DONE.
=------------------------------------------------------------------------------=
