
     Program PWSCF v.6.1 (svn rev. 13369) starts on 31Dec2017 at 11: 8:52 

     This program is part of the open-source Quantum ESPRESSO suite
     for quantum simulation of materials; please cite
         "P. Giannozzi et al., J. Phys.:Condens. Matter 21 395502 (2009);
          URL http://www.quantum-espresso.org", 
     in publications or presentations arising from this work. More details at
     http://www.quantum-espresso.org/quote

     Parallel version (MPI), running on    28 processors
     R & G space division:  proc/nbgrp/npool/nimage =      28
     Waiting for input...
     Reading input from standard input

     Current dimensions of program PWSCF are:
     Max number of different atomic species (ntypx) = 10
     Max number of k-points (npk) =  40000
     Max angular momentum in pseudopotentials (lmaxx) =  3
               file O.pbe-rrkjus.UPF: wavefunction(s)  2S renormalized

     Subspace diagonalization in iterative solution of the eigenvalue problem:
     a serial algorithm will be used

 
     Parallelization info
     --------------------
     sticks:   dense  smooth     PW     G-vecs:    dense   smooth      PW
     Min          62      31      9                 1956      691     110
     Max          63      32     10                 1961      694     113
     Sum        1749     877    261                54795    19381    3119
 

     Title: 
     cubic BaTiO3 at 7.40 lattice parameter. xc=PZ                              


     bravais-lattice index     =            1
     lattice parameter (alat)  =       7.4000  a.u.
     unit-cell volume          =     405.2240 (a.u.)^3
     number of atoms/cell      =            5
     number of atomic types    =            3
     number of electrons       =        40.00
     number of Kohn-Sham states=           24
     kinetic-energy cutoff     =      50.0000  Ry
     charge density cutoff     =     400.0000  Ry
     convergence threshold     =      1.0E-12
     mixing beta               =       0.6000
     number of iterations used =            8  plain     mixing
     Exchange-correlation      =  SLA  PW   PBE  PBE ( 1  4  3  4 0 0)

     celldm(1)=   7.400000  celldm(2)=   0.000000  celldm(3)=   0.000000
     celldm(4)=   0.000000  celldm(5)=   0.000000  celldm(6)=   0.000000

     crystal axes: (cart. coord. in units of alat)
               a(1) = (   1.000000   0.000000   0.000000 )  
               a(2) = (   0.000000   1.000000   0.000000 )  
               a(3) = (   0.000000   0.000000   1.000000 )  

     reciprocal axes: (cart. coord. in units 2 pi/alat)
               b(1) = (  1.000000  0.000000  0.000000 )  
               b(2) = (  0.000000  1.000000  0.000000 )  
               b(3) = (  0.000000  0.000000  1.000000 )  


     PseudoPot. # 1 for O  read from file:
     ../../PSP_DIR/O.pbe-rrkjus.UPF
     MD5 check sum: 390ba29e75625707450f3bd3f0eb6be9
     Pseudo is Ultrasoft, Zval =  6.0
     Generated by new atomic code, or converted to UPF format
     Using radial grid of 1269 points,  4 beta functions with: 
                l(1) =   0
                l(2) =   0
                l(3) =   1
                l(4) =   1
     Q(r) pseudized with 0 coefficients 


     PseudoPot. # 2 for Ti read from file:
     ../../PSP_DIR/Ti.pbe-sp-van_ak.UPF
     MD5 check sum: 8e4df49b7f0d34bbd5052bf3f5ea0213
     Pseudo is Ultrasoft, Zval = 12.0
     Generated by new atomic code, or converted to UPF format
     Using radial grid of  851 points,  6 beta functions with: 
                l(1) =   0
                l(2) =   0
                l(3) =   1
                l(4) =   1
                l(5) =   2
                l(6) =   2
     Q(r) pseudized with  8 coefficients,  rinner =    1.000   1.000   1.000
                                                       1.000   1.000

     PseudoPot. # 3 for Ba read from file:
     ../../PSP_DIR/Ba.pbe-nsp-van.UPF
     MD5 check sum: a011de417d3466d8e94df216395bc359
     Pseudo is Ultrasoft + core correction, Zval = 10.0
     Generated by new atomic code, or converted to UPF format
     Using radial grid of  907 points,  6 beta functions with: 
                l(1) =   0
                l(2) =   0
                l(3) =   1
                l(4) =   1
                l(5) =   2
                l(6) =   2
     Q(r) pseudized with  6 coefficients,  rinner =    1.200   1.200   1.200
                                                       1.200   1.200

     atomic species   valence    mass     pseudopotential
        O              6.00    15.99000     O ( 1.00)
        Ti            12.00    47.88000     Ti( 1.00)
        Ba            10.00   137.33000     Ba( 1.00)

     48 Sym. Ops., with inversion, found



   Cartesian axes

     site n.     atom                  positions (alat units)
         1           Ba  tau(   1) = (   0.0000000   0.0000000   0.0000000  )
         2           Ti  tau(   2) = (   0.5000000   0.5000000   0.5000000  )
         3           O   tau(   3) = (   0.0000000   0.5000000   0.5000000  )
         4           O   tau(   4) = (   0.5000000   0.0000000   0.5000000  )
         5           O   tau(   5) = (   0.5000000   0.5000000   0.0000000  )

     number of k points=    35
                       cart. coord. in units 2pi/alat
        k(    1) = (   0.0500000   0.0500000   0.0500000), wk =   0.0160000
        k(    2) = (   0.0500000   0.0500000   0.1500000), wk =   0.0480000
        k(    3) = (   0.0500000   0.0500000   0.2500000), wk =   0.0480000
        k(    4) = (   0.0500000   0.0500000   0.3500000), wk =   0.0480000
        k(    5) = (   0.0500000   0.0500000   0.4500000), wk =   0.0480000
        k(    6) = (   0.0500000   0.1500000   0.1500000), wk =   0.0480000
        k(    7) = (   0.0500000   0.1500000   0.2500000), wk =   0.0960000
        k(    8) = (   0.0500000   0.1500000   0.3500000), wk =   0.0960000
        k(    9) = (   0.0500000   0.1500000   0.4500000), wk =   0.0960000
        k(   10) = (   0.0500000   0.2500000   0.2500000), wk =   0.0480000
        k(   11) = (   0.0500000   0.2500000   0.3500000), wk =   0.0960000
        k(   12) = (   0.0500000   0.2500000   0.4500000), wk =   0.0960000
        k(   13) = (   0.0500000   0.3500000   0.3500000), wk =   0.0480000
        k(   14) = (   0.0500000   0.3500000   0.4500000), wk =   0.0960000
        k(   15) = (   0.0500000   0.4500000   0.4500000), wk =   0.0480000
        k(   16) = (   0.1500000   0.1500000   0.1500000), wk =   0.0160000
        k(   17) = (   0.1500000   0.1500000   0.2500000), wk =   0.0480000
        k(   18) = (   0.1500000   0.1500000   0.3500000), wk =   0.0480000
        k(   19) = (   0.1500000   0.1500000   0.4500000), wk =   0.0480000
        k(   20) = (   0.1500000   0.2500000   0.2500000), wk =   0.0480000
        k(   21) = (   0.1500000   0.2500000   0.3500000), wk =   0.0960000
        k(   22) = (   0.1500000   0.2500000   0.4500000), wk =   0.0960000
        k(   23) = (   0.1500000   0.3500000   0.3500000), wk =   0.0480000
        k(   24) = (   0.1500000   0.3500000   0.4500000), wk =   0.0960000
        k(   25) = (   0.1500000   0.4500000   0.4500000), wk =   0.0480000
        k(   26) = (   0.2500000   0.2500000   0.2500000), wk =   0.0160000
        k(   27) = (   0.2500000   0.2500000   0.3500000), wk =   0.0480000
        k(   28) = (   0.2500000   0.2500000   0.4500000), wk =   0.0480000
        k(   29) = (   0.2500000   0.3500000   0.3500000), wk =   0.0480000
        k(   30) = (   0.2500000   0.3500000   0.4500000), wk =   0.0960000
        k(   31) = (   0.2500000   0.4500000   0.4500000), wk =   0.0480000
        k(   32) = (   0.3500000   0.3500000   0.3500000), wk =   0.0160000
        k(   33) = (   0.3500000   0.3500000   0.4500000), wk =   0.0480000
        k(   34) = (   0.3500000   0.4500000   0.4500000), wk =   0.0480000
        k(   35) = (   0.4500000   0.4500000   0.4500000), wk =   0.0160000

     Dense  grid:    54795 G-vectors     FFT dimensions: (  48,  48,  48)

     Smooth grid:    19381 G-vectors     FFT dimensions: (  36,  36,  36)

     Estimated max dynamical RAM per process >       2.92MB

     Estimated total allocated dynamical RAM >      81.75MB

     Initial potential from superposition of free atoms

     starting charge   38.98495, renormalised to   40.00000
     Starting wfc are   35 randomized atomic wfcs

     total cpu time spent up to now is        1.7 secs

     per-process dynamical memory:    34.9 Mb

     Self-consistent Calculation

     iteration #  1     ecut=    50.00 Ry     beta=0.60
     Davidson diagonalization with overlap
     ethr =  1.00E-02,  avg # of iterations =  2.5

     total cpu time spent up to now is        2.1 secs

     total energy              =    -302.90870622 Ry
     Harris-Foulkes estimate   =    -303.47632894 Ry
     estimated scf accuracy    <       0.79231942 Ry

     iteration #  2     ecut=    50.00 Ry     beta=0.60
     Davidson diagonalization with overlap
     ethr =  1.98E-03,  avg # of iterations =  4.0

     total cpu time spent up to now is        2.8 secs

     total energy              =    -302.37660273 Ry
     Harris-Foulkes estimate   =    -303.82909075 Ry
     estimated scf accuracy    <       5.45225321 Ry

     iteration #  3     ecut=    50.00 Ry     beta=0.60
     Davidson diagonalization with overlap
     ethr =  1.98E-03,  avg # of iterations =  3.2

     total cpu time spent up to now is        3.3 secs

     total energy              =    -303.30996116 Ry
     Harris-Foulkes estimate   =    -303.35380868 Ry
     estimated scf accuracy    <       0.16514317 Ry

     iteration #  4     ecut=    50.00 Ry     beta=0.60
     Davidson diagonalization with overlap
     ethr =  4.13E-04,  avg # of iterations =  1.4

     total cpu time spent up to now is        3.7 secs

     total energy              =    -303.29715453 Ry
     Harris-Foulkes estimate   =    -303.31831543 Ry
     estimated scf accuracy    <       0.06113880 Ry

     iteration #  5     ecut=    50.00 Ry     beta=0.60
     Davidson diagonalization with overlap
     ethr =  1.53E-04,  avg # of iterations =  3.1

     total cpu time spent up to now is        4.2 secs

     total energy              =    -303.30981417 Ry
     Harris-Foulkes estimate   =    -303.30977612 Ry
     estimated scf accuracy    <       0.00038647 Ry

     iteration #  6     ecut=    50.00 Ry     beta=0.60
     Davidson diagonalization with overlap
     ethr =  9.66E-07,  avg # of iterations =  4.1

     total cpu time spent up to now is        4.8 secs

     total energy              =    -303.30982278 Ry
     Harris-Foulkes estimate   =    -303.31004282 Ry
     estimated scf accuracy    <       0.00044410 Ry

     iteration #  7     ecut=    50.00 Ry     beta=0.60
     Davidson diagonalization with overlap
     ethr =  9.66E-07,  avg # of iterations =  3.2

     total cpu time spent up to now is        5.3 secs

     total energy              =    -303.30993077 Ry
     Harris-Foulkes estimate   =    -303.30994382 Ry
     estimated scf accuracy    <       0.00003726 Ry

     iteration #  8     ecut=    50.00 Ry     beta=0.60
     Davidson diagonalization with overlap
     ethr =  9.32E-08,  avg # of iterations =  2.6

     total cpu time spent up to now is        5.7 secs

     total energy              =    -303.30993480 Ry
     Harris-Foulkes estimate   =    -303.30993580 Ry
     estimated scf accuracy    <       0.00000218 Ry

     iteration #  9     ecut=    50.00 Ry     beta=0.60
     Davidson diagonalization with overlap
     ethr =  5.45E-09,  avg # of iterations =  3.5

     total cpu time spent up to now is        6.3 secs

     total energy              =    -303.30993554 Ry
     Harris-Foulkes estimate   =    -303.30993555 Ry
     estimated scf accuracy    <       0.00000004 Ry

     iteration # 10     ecut=    50.00 Ry     beta=0.60
     Davidson diagonalization with overlap
     ethr =  8.85E-11,  avg # of iterations =  3.1

     total cpu time spent up to now is        6.8 secs

          k = 0.0500 0.0500 0.0500     band energies (ev):

   -45.1108 -21.3803 -21.3801 -21.3801 -13.1731  -5.7331  -5.0974  -5.0974
     1.6067   1.6067   1.6626   8.8180   8.8981   8.8981   9.7045   9.7045
     9.8562  10.9225  11.0447  11.0447  13.2252  13.2501  13.2501  15.7353

          k = 0.0500 0.0500 0.1500     band energies (ev):

   -45.1106 -21.3933 -21.3797 -21.3796 -13.1427  -5.7584  -5.0921  -5.0677
     1.6291   1.6395   1.7739   8.4828   8.8083   8.8309   9.4578   9.5253
     9.8139  10.4889  10.8930  10.8995  13.2559  13.6195  13.6237  15.7377

          k = 0.0500 0.0500 0.2500     band energies (ev):

   -45.1101 -21.4144 -21.3788 -21.3787 -13.0925  -5.8493  -5.0836  -4.9596
     1.6938   1.6997   1.9185   7.9297   8.6448   8.6762   9.2366   9.2754
     9.6675   9.9998  10.6933  10.7042  13.2840  14.1688  14.1721  15.7398

          k = 0.0500 0.0500 0.3500     band energies (ev):

   -45.1097 -21.4354 -21.3779 -21.3778 -13.0411  -5.9726  -5.0751  -4.8067
     1.7497   1.7851   2.0469   7.3858   8.4567   8.4848   9.0012   9.0965
     9.5264   9.7341  10.5044  10.5351  13.3124  14.6770  14.6819  15.7403

          k = 0.0500 0.0500 0.4500     band energies (ev):

   -45.1094 -21.4483 -21.3773 -21.3773 -13.0087  -6.0562  -5.0698  -4.6981
     1.7852   1.8438   2.1198   7.0550   8.3430   8.3615   8.8032   9.0208
     9.4521   9.6548  10.3871  10.4393  13.3302  14.9826  14.9862  15.7394

          k = 0.0500 0.1500 0.1500     band energies (ev):

   -45.1103 -21.3931 -21.3923 -21.3791 -13.1143  -5.7522  -5.0765  -5.0657
     1.6022   1.6657   1.8906   8.2631   8.6279   8.7750   9.1794   9.3479
     9.9260  10.1523  10.7297  10.7966  13.5827  13.6883  13.8630  16.0036

          k = 0.0500 0.1500 0.2500     band energies (ev):

   -45.1099 -21.4137 -21.3917 -21.3782 -13.0677  -5.7963  -5.0653  -4.9860
     1.6252   1.7215   1.9953   7.8174   8.4139   8.6335   8.8732   9.1409
     9.7743   9.9492  10.5041  10.6701  13.6529  14.1898  14.2876  16.0824

          k = 0.0500 0.1500 0.3500     band energies (ev):

   -45.1094 -21.4346 -21.3907 -21.3774 -13.0199  -5.8855  -5.0527  -4.8516
     1.6776   1.8009   2.0416   7.3304   8.2443   8.4382   8.5608   9.0198
     9.6223   9.9468  10.3083  10.4801  13.6825  14.6911  14.7383  16.0990

          k = 0.0500 0.1500 0.4500     band energies (ev):

   -45.1092 -21.4474 -21.3901 -21.3768 -12.9899  -5.9530  -5.0444  -4.7507
     1.7141   1.8899   2.0233   7.0193   8.1764   8.2926   8.3653   8.9690
     9.5686  10.0262  10.1999  10.2751  13.6998  14.9931  15.0281  16.1010

          k = 0.0500 0.2500 0.2500     band energies (ev):

   -45.1094 -21.4132 -21.4119 -21.3774 -13.0268  -5.7471  -5.0409  -4.9804
     1.5905   1.7610   2.0352   7.5903   8.0840   8.3519   8.6755   8.9210
     9.5962  10.0630  10.2433  10.7405  14.1276  14.2782  14.5537  16.3207

          k = 0.0500 0.2500 0.3500     band energies (ev):

   -45.1090 -21.4332 -21.4113 -21.3766 -12.9851  -5.7516  -5.0221  -4.9066
     1.6062   1.8016   2.0195   7.2453   7.8251   8.0206   8.5087   8.8018
     9.6253  10.0108  10.1136  10.7336  14.2156  14.7133  14.8978  16.4068

          k = 0.0500 0.2500 0.4500     band energies (ev):

   -45.1087 -21.4459 -21.4106 -21.3761 -12.9590  -5.7781  -5.0079  -4.8348
     1.6404   1.8298   1.9808   6.9726   7.6555   7.9073   8.3665   8.7784
     9.7484   9.8672  10.0943  10.6820  14.2345  15.0091  15.1461  16.4322

          k = 0.0500 0.3500 0.3500     band energies (ev):

   -45.1086 -21.4323 -21.4315 -21.3758 -12.9497  -5.6389  -5.0031  -4.9216
     1.5756   1.7527   2.0165   7.1007   7.5174   7.5336   8.4892   8.5739
     9.6504   9.9220  10.2431  10.9035  14.6741  14.7713  15.1387  16.5450

          k = 0.0500 0.3500 0.4500     band energies (ev):

   -45.1083 -21.4445 -21.4310 -21.3753 -12.9275  -5.5904  -4.9836  -4.9137
     1.5870   1.6851   2.0273   6.9075   7.2733   7.4157   8.3738   8.5371
     9.5621  10.0931  10.2518  10.9604  14.7317  15.0250  15.3308  16.5907

          k = 0.0500 0.4500 0.4500     band energies (ev):

   -45.1081 -21.4437 -21.4435 -21.3748 -12.9078  -5.4656  -4.9787  -4.9581
     1.5660   1.5933   2.0584   6.7943   7.0707   7.1752   8.3767   8.3848
     9.4251  10.3053  10.3657  11.0791  15.0262  15.0405  15.4829  16.6431

          k = 0.1500 0.1500 0.1500     band energies (ev):

   -45.1100 -21.3929 -21.3917 -21.3917 -13.0878  -5.7248  -5.0653  -5.0653
     1.5953   1.5953   2.0281   8.0457   8.5817   8.5817   9.1187   9.1187
     9.7966  10.0653  10.6680  10.6680  13.8397  13.9151  13.9151  16.5730

          k = 0.1500 0.1500 0.2500     band energies (ev):

   -45.1096 -21.4130 -21.3914 -21.3908 -13.0441  -5.7334  -5.0470  -5.0047
     1.5830   1.6019   2.1211   7.6826   8.2871   8.4839   8.8866   8.9491
     9.4968  10.1027  10.4696  10.5851  13.9253  14.3151  14.3295  16.5706

          k = 0.1500 0.1500 0.3500     band energies (ev):

   -45.1092 -21.4338 -21.3904 -21.3899 -12.9995  -5.7946  -5.0285  -4.8824
     1.5694   1.6944   2.1155   7.2773   8.0290   8.3849   8.5401   8.8657
     9.5187  10.0601  10.2748  10.4329  13.9661  14.7501  14.7838  16.5636

          k = 0.1500 0.1500 0.4500     band energies (ev):

   -45.1089 -21.4465 -21.3898 -21.3893 -12.9715  -5.8482  -5.0169  -4.7857
     1.5602   1.8373   2.0196   6.9919   7.9503   8.2901   8.3350   8.8266
     9.6364  10.0240  10.1469  10.2714  13.9892  15.0363  15.0675  16.5555

          k = 0.1500 0.2500 0.2500     band energies (ev):

   -45.1092 -21.4125 -21.4113 -21.3902 -13.0055  -5.6660  -5.0201  -4.9926
     1.5209   1.5474   2.1666   7.4696   8.0617   8.2426   8.7305   8.8476
     9.1918  10.2384  10.3082  10.6362  14.3221  14.4147  14.5988  16.9199

          k = 0.1500 0.2500 0.3500     band energies (ev):

   -45.1087 -21.4325 -21.4107 -21.3893 -12.9661  -5.6533  -4.9944  -4.9168
     1.4723   1.5736   2.1031   7.2066   7.7644   8.0496   8.5115   8.7840
     9.2298  10.1451  10.2559  10.6568  14.4093  14.8117  14.9441  16.9909

          k = 0.1500 0.2500 0.4500     band energies (ev):

   -45.1085 -21.4452 -21.4101 -21.3887 -12.9414  -5.6705  -4.9766  -4.8425
     1.4362   1.6665   1.9863   6.9587   7.6722   7.9388   8.3589   8.7780
     9.3178  10.0976  10.1859  10.6323  14.4388  15.0870  15.1887  17.0001

          k = 0.1500 0.3500 0.3500     band energies (ev):

   -45.1083 -21.4316 -21.4308 -21.3884 -12.9320  -5.5326  -4.9727  -4.9125
     1.4454   1.4691   2.0030   7.1015   7.5109   7.6596   8.5233   8.6501
     9.1481  10.1053  10.3629  10.8519  14.8163  14.8892  15.1862  17.1546

          k = 0.1500 0.3500 0.4500     band energies (ev):

   -45.1081 -21.4438 -21.4304 -21.3879 -12.9107  -5.4794  -4.9487  -4.8955
     1.3879   1.4993   1.8878   6.9077   7.4102   7.5232   8.4325   8.6533
     9.0892  10.2155  10.3457  10.9318  14.8779  15.1295  15.3758  17.1930

          k = 0.1500 0.4500 0.4500     band energies (ev):

   -45.1078 -21.4430 -21.4429 -21.3874 -12.8915  -5.3513  -4.9424  -4.9243
     1.3993   1.4026   1.7859   6.7950   7.1776   7.4505   8.5100   8.5408
     8.9117  10.3791  10.4364  11.0706  15.1475  15.1594  15.5274  17.2385

          k = 0.2500 0.2500 0.2500     band energies (ev):

   -45.1087 -21.4118 -21.4103 -21.4103 -12.9705  -5.5577  -4.9858  -4.9858
     1.4086   1.4086   2.1560   7.3405   8.0311   8.0311   8.5912   8.7965
     8.7965  10.4222  10.4753  10.4753  14.6611  14.6746  14.6746  17.7288

          k = 0.2500 0.2500 0.3500     band energies (ev):

   -45.1083 -21.4313 -21.4102 -21.4093 -12.9349  -5.4975  -4.9506  -4.9252
     1.2967   1.3865   2.0142   7.1824   7.7118   8.0095   8.2640   8.7912
     8.8799  10.3111  10.5305  10.5769  14.7377  14.9931  15.0332  17.7102

          k = 0.2500 0.2500 0.4500     band energies (ev):

   -45.1081 -21.4439 -21.4095 -21.4087 -12.9125  -5.4884  -4.9285  -4.8561
     1.2277   1.4509   1.8441   6.9437   7.7254   7.9973   8.0010   8.8040
     8.9971  10.2116  10.5634  10.5935  14.7779  15.2253  15.2728  17.6926

          k = 0.2500 0.3500 0.3500     band energies (ev):

   -45.1079 -21.4304 -21.4298 -21.4088 -12.9031  -5.3579  -4.9221  -4.8958
     1.2003   1.2416   1.8101   7.1188   7.5060   7.8254   8.1856   8.7495
     8.8631  10.3857  10.5539  10.7841  15.0710  15.0973  15.2653  18.0043

          k = 0.2500 0.3500 0.4500     band energies (ev):

   -45.1076 -21.4426 -21.4294 -21.4082 -12.8833  -5.2922  -4.8917  -4.8663
     1.1181   1.2522   1.6123   6.9033   7.4229   7.8774   8.0676   8.7824
     8.8687  10.4055  10.5808  10.8959  15.1286  15.3141  15.4521  18.0258

          k = 0.2500 0.4500 0.4500     band energies (ev):

   -45.1074 -21.4419 -21.4418 -21.4076 -12.8650  -5.1593  -4.8816  -4.8683
     1.1183   1.1427   1.4011   6.7852   7.1821   7.9932   8.0921   8.7374
     8.7831  10.5616  10.6065  11.0590  15.3550  15.3609  15.6036  18.0528

          k = 0.3500 0.3500 0.3500     band energies (ev):

   -45.1075 -21.4296 -21.4287 -21.4287 -12.8738  -5.1864  -4.8697  -4.8697
     1.0450   1.0450   1.5309   7.0680   7.5055   7.5055   8.2099   8.8263
     8.8263  10.6660  10.6660  10.8056  15.3404  15.3404  15.3580  18.7307

          k = 0.3500 0.3500 0.4500     band energies (ev):

   -45.1072 -21.4414 -21.4286 -21.4281 -12.8555  -5.0924  -4.8379  -4.8362
     0.9265   1.0250   1.2966   6.8583   7.3850   7.5066   8.2876   8.8649
     8.8680  10.6504  10.8229  10.9063  15.3986  15.5192  15.5412  18.6369

          k = 0.3500 0.4500 0.4500     band energies (ev):

   -45.1070 -21.4407 -21.4407 -21.4277 -12.8381  -4.9568  -4.8180  -4.8107
     0.8695   0.8988   1.0504   6.7318   7.1871   7.4662   8.5141   8.8674
     8.8841  10.8260  10.8505  11.0500  15.5818  15.5822  15.6852  18.5553

          k = 0.4500 0.4500 0.4500     band energies (ev):

   -45.1067 -21.4401 -21.4400 -21.4400 -12.8213  -4.8229  -4.7771  -4.7771
     0.7531   0.7531   0.8222   6.6195   7.1905   7.1905   8.8100   8.9191
     8.9191  11.0253  11.0253  11.0580  15.7373  15.7373  15.7398  18.5651

     highest occupied, lowest unoccupied level (ev):    11.0791   13.2252

!    total energy              =    -303.30993555 Ry
     Harris-Foulkes estimate   =    -303.30993555 Ry
     estimated scf accuracy    <          6.6E-09 Ry

     The total energy is the sum of the following terms:

     one-electron contribution =     -64.95913209 Ry
     hartree contribution      =      57.91756245 Ry
     xc contribution           =     -84.35397754 Ry
     ewald contribution        =    -211.91466263 Ry
     scf correction            =       0.00027427 Ry

     iteration # 11     ecut=    50.00 Ry     beta=0.60
     Davidson diagonalization with overlap
     ethr =  1.66E-11,  avg # of iterations =  3.0

     total cpu time spent up to now is        7.2 secs

     total energy              =    -303.30993555 Ry
     Harris-Foulkes estimate   =    -303.30993555 Ry
     estimated scf accuracy    <          1.5E-09 Ry

     iteration # 12     ecut=    50.00 Ry     beta=0.60
     Davidson diagonalization with overlap
     ethr =  3.72E-12,  avg # of iterations =  2.9

     total cpu time spent up to now is        7.7 secs

     total energy              =    -303.30993555 Ry
     Harris-Foulkes estimate   =    -303.30993555 Ry
     estimated scf accuracy    <          1.0E-11 Ry

     iteration # 13     ecut=    50.00 Ry     beta=0.60
     Davidson diagonalization with overlap
     ethr =  1.00E-13,  avg # of iterations =  3.1

     total cpu time spent up to now is        8.3 secs

     total energy              =    -303.30993555 Ry
     Harris-Foulkes estimate   =    -303.30993555 Ry
     estimated scf accuracy    <          4.0E-12 Ry

     iteration # 14     ecut=    50.00 Ry     beta=0.60
     Davidson diagonalization with overlap
     ethr =  1.00E-13,  avg # of iterations =  2.0

     total cpu time spent up to now is        8.7 secs

     total energy              =    -303.30993555 Ry
     Harris-Foulkes estimate   =    -303.30993555 Ry
     estimated scf accuracy    <          6.3E-12 Ry

     iteration # 15     ecut=    50.00 Ry     beta=0.60
     Davidson diagonalization with overlap
     ethr =  1.00E-13,  avg # of iterations =  1.0

     total cpu time spent up to now is        9.0 secs

     End of self-consistent calculation

          k = 0.0500 0.0500 0.0500 (  2436 PWs)   bands (ev):

   -45.1106 -21.3800 -21.3798 -21.3798 -13.1731  -5.7331  -5.0974  -5.0974
     1.6066   1.6066   1.6626   8.8180   8.8981   8.8981   9.7045   9.7045
     9.8562  10.9225  11.0447  11.0447  13.2253  13.2503  13.2503  15.7354

          k = 0.0500 0.0500 0.1500 (  2438 PWs)   bands (ev):

   -45.1103 -21.3930 -21.3794 -21.3793 -13.1427  -5.7584  -5.0922  -5.0677
     1.6291   1.6394   1.7739   8.4828   8.8083   8.8309   9.4578   9.5253
     9.8139  10.4889  10.8930  10.8995  13.2561  13.6197  13.6239  15.7379

          k = 0.0500 0.0500 0.2500 (  2425 PWs)   bands (ev):

   -45.1099 -21.4142 -21.3785 -21.3784 -13.0926  -5.8493  -5.0836  -4.9596
     1.6938   1.6996   1.9184   7.9298   8.6448   8.6762   9.2366   9.2754
     9.6675   9.9998  10.6933  10.7042  13.2842  14.1690  14.1723  15.7400

          k = 0.0500 0.0500 0.3500 (  2415 PWs)   bands (ev):

   -45.1094 -21.4352 -21.3776 -21.3776 -13.0412  -5.9726  -5.0751  -4.8067
     1.7497   1.7851   2.0469   7.3858   8.4567   8.4848   9.0012   9.0965
     9.5264   9.7341  10.5044  10.5351  13.3126  14.6771  14.6820  15.7405

          k = 0.0500 0.0500 0.4500 (  2417 PWs)   bands (ev):

   -45.1092 -21.4480 -21.3771 -21.3770 -13.0088  -6.0562  -5.0698  -4.6981
     1.7851   1.8438   2.1198   7.0551   8.3430   8.3615   8.8032   9.0208
     9.4521   9.6548  10.3871  10.4393  13.3304  14.9827  14.9863  15.7396

          k = 0.0500 0.1500 0.1500 (  2423 PWs)   bands (ev):

   -45.1100 -21.3929 -21.3920 -21.3788 -13.1144  -5.7522  -5.0765  -5.0657
     1.6022   1.6656   1.8906   8.2631   8.6279   8.7750   9.1794   9.3479
     9.9259  10.1523  10.7297  10.7966  13.5829  13.6885  13.8632  16.0038

          k = 0.0500 0.1500 0.2500 (  2416 PWs)   bands (ev):

   -45.1096 -21.4135 -21.3914 -21.3780 -13.0677  -5.7963  -5.0654  -4.9860
     1.6252   1.7214   1.9953   7.8174   8.4139   8.6335   8.8732   9.1409
     9.7743   9.9492  10.5041  10.6700  13.6531  14.1900  14.2877  16.0826

          k = 0.0500 0.1500 0.3500 (  2416 PWs)   bands (ev):

   -45.1092 -21.4343 -21.3904 -21.3771 -13.0200  -5.8855  -5.0527  -4.8516
     1.6776   1.8009   2.0416   7.3304   8.2443   8.4382   8.5608   9.0198
     9.6223   9.9468  10.3083  10.4801  13.6826  14.6912  14.7385  16.0992

          k = 0.0500 0.1500 0.4500 (  2424 PWs)   bands (ev):

   -45.1089 -21.4471 -21.3898 -21.3766 -12.9899  -5.9530  -5.0444  -4.7508
     1.7140   1.8898   2.0232   7.0193   8.1764   8.2926   8.3653   8.9690
     9.5686  10.0262  10.1999  10.2751  13.7000  14.9933  15.0283  16.1012

          k = 0.0500 0.2500 0.2500 (  2419 PWs)   bands (ev):

   -45.1092 -21.4129 -21.4116 -21.3771 -13.0269  -5.7471  -5.0409  -4.9804
     1.5905   1.7609   2.0352   7.5903   8.0841   8.3519   8.6755   8.9210
     9.5961  10.0630  10.2433  10.7405  14.1278  14.2784  14.5538  16.3209

          k = 0.0500 0.2500 0.3500 (  2421 PWs)   bands (ev):

   -45.1087 -21.4330 -21.4111 -21.3763 -12.9852  -5.7516  -5.0221  -4.9066
     1.6062   1.8016   2.0195   7.2453   7.8251   8.0206   8.5087   8.8018
     9.6253  10.0108  10.1136  10.7336  14.2158  14.7135  14.8980  16.4069

          k = 0.0500 0.2500 0.4500 (  2420 PWs)   bands (ev):

   -45.1085 -21.4457 -21.4104 -21.3758 -12.9590  -5.7781  -5.0079  -4.8348
     1.6404   1.8298   1.9808   6.9726   7.6555   7.9074   8.3666   8.7784
     9.7484   9.8671  10.0943  10.6820  14.2347  15.0092  15.1463  16.4324

          k = 0.0500 0.3500 0.3500 (  2419 PWs)   bands (ev):

   -45.1083 -21.4320 -21.4312 -21.3755 -12.9498  -5.6389  -5.0031  -4.9216
     1.5755   1.7526   2.0164   7.1007   7.5174   7.5336   8.4892   8.5739
     9.6504   9.9220  10.2431  10.9035  14.6743  14.7715  15.1389  16.5452

          k = 0.0500 0.3500 0.4500 (  2426 PWs)   bands (ev):

   -45.1080 -21.4442 -21.4308 -21.3750 -12.9275  -5.5904  -4.9836  -4.9137
     1.5870   1.6851   2.0272   6.9075   7.2733   7.4157   8.3738   8.5371
     9.5621  10.0930  10.2518  10.9604  14.7319  15.0252  15.3309  16.5909

          k = 0.0500 0.4500 0.4500 (  2427 PWs)   bands (ev):

   -45.1078 -21.4434 -21.4433 -21.3746 -12.9078  -5.4656  -4.9787  -4.9581
     1.5660   1.5933   2.0583   6.7943   7.0707   7.1753   8.3767   8.3848
     9.4251  10.3053  10.3657  11.0791  15.0264  15.0407  15.4831  16.6433

          k = 0.1500 0.1500 0.1500 (  2415 PWs)   bands (ev):

   -45.1097 -21.3926 -21.3914 -21.3914 -13.0878  -5.7248  -5.0653  -5.0653
     1.5953   1.5953   2.0281   8.0457   8.5817   8.5817   9.1187   9.1187
     9.7966  10.0653  10.6680  10.6680  13.8399  13.9153  13.9153  16.5732

          k = 0.1500 0.1500 0.2500 (  2418 PWs)   bands (ev):

   -45.1093 -21.4128 -21.3912 -21.3905 -13.0442  -5.7334  -5.0470  -5.0048
     1.5830   1.6019   2.1210   7.6826   8.2871   8.4840   8.8866   8.9491
     9.4968  10.1027  10.4696  10.5851  13.9255  14.3153  14.3297  16.5708

          k = 0.1500 0.1500 0.3500 (  2418 PWs)   bands (ev):

   -45.1089 -21.4335 -21.3902 -21.3896 -12.9996  -5.7946  -5.0285  -4.8824
     1.5693   1.6944   2.1154   7.2773   8.0290   8.3849   8.5401   8.8657
     9.5187  10.0600  10.2748  10.4329  13.9663  14.7502  14.7840  16.5638

          k = 0.1500 0.1500 0.4500 (  2424 PWs)   bands (ev):

   -45.1086 -21.4463 -21.3896 -21.3891 -12.9715  -5.8482  -5.0169  -4.7857
     1.5602   1.8372   2.0196   6.9919   7.9503   8.2901   8.3350   8.8266
     9.6364  10.0240  10.1469  10.2714  13.9894  15.0365  15.0677  16.5557

          k = 0.1500 0.2500 0.2500 (  2414 PWs)   bands (ev):

   -45.1089 -21.4122 -21.4110 -21.3899 -13.0055  -5.6660  -5.0201  -4.9926
     1.5209   1.5474   2.1666   7.4696   8.0617   8.2426   8.7305   8.8476
     9.1918  10.2384  10.3082  10.6362  14.3223  14.4149  14.5989  16.9201

          k = 0.1500 0.2500 0.3500 (  2421 PWs)   bands (ev):

   -45.1085 -21.4322 -21.4105 -21.3890 -12.9661  -5.6534  -4.9944  -4.9169
     1.4722   1.5735   2.1030   7.2066   7.7644   8.0496   8.5115   8.7840
     9.2298  10.1451  10.2559  10.6567  14.4095  14.8119  14.9443  16.9911

          k = 0.1500 0.2500 0.4500 (  2420 PWs)   bands (ev):

   -45.1082 -21.4449 -21.4098 -21.3885 -12.9414  -5.6705  -4.9766  -4.8425
     1.4362   1.6665   1.9863   6.9588   7.6722   7.9389   8.3589   8.7780
     9.3178  10.0976  10.1859  10.6323  14.4390  15.0872  15.1889  17.0003

          k = 0.1500 0.3500 0.3500 (  2421 PWs)   bands (ev):

   -45.1080 -21.4313 -21.4306 -21.3882 -12.9321  -5.5326  -4.9727  -4.9125
     1.4453   1.4691   2.0030   7.1015   7.5110   7.6597   8.5233   8.6501
     9.1481  10.1052  10.3629  10.8519  14.8165  14.8894  15.1864  17.1548

          k = 0.1500 0.3500 0.4500 (  2423 PWs)   bands (ev):

   -45.1078 -21.4435 -21.4301 -21.3876 -12.9108  -5.4794  -4.9487  -4.8955
     1.3879   1.4993   1.8877   6.9077   7.4103   7.5232   8.4326   8.6533
     9.0892  10.2154  10.3457  10.9318  14.8781  15.1296  15.3760  17.1932

          k = 0.1500 0.4500 0.4500 (  2416 PWs)   bands (ev):

   -45.1075 -21.4427 -21.4426 -21.3871 -12.8916  -5.3513  -4.9424  -4.9243
     1.3993   1.4026   1.7859   6.7950   7.1776   7.4505   8.5100   8.5408
     8.9117  10.3791  10.4364  11.0706  15.1477  15.1595  15.5276  17.2387

          k = 0.2500 0.2500 0.2500 (  2425 PWs)   bands (ev):

   -45.1085 -21.4116 -21.4101 -21.4101 -12.9705  -5.5577  -4.9858  -4.9858
     1.4086   1.4086   2.1559   7.3405   8.0311   8.0311   8.5912   8.7965
     8.7965  10.4222  10.4753  10.4753  14.6613  14.6747  14.6747  17.7290

          k = 0.2500 0.2500 0.3500 (  2428 PWs)   bands (ev):

   -45.1081 -21.4311 -21.4099 -21.4091 -12.9349  -5.4975  -4.9506  -4.9252
     1.2967   1.3865   2.0142   7.1824   7.7118   8.0095   8.2640   8.7912
     8.8799  10.3111  10.5305  10.5769  14.7379  14.9932  15.0334  17.7104

          k = 0.2500 0.2500 0.4500 (  2420 PWs)   bands (ev):

   -45.1078 -21.4436 -21.4092 -21.4085 -12.9126  -5.4884  -4.9285  -4.8561
     1.2277   1.4509   1.8441   6.9438   7.7254   7.9973   8.0011   8.8040
     8.9971  10.2116  10.5634  10.5935  14.7780  15.2255  15.2730  17.6928

          k = 0.2500 0.3500 0.3500 (  2416 PWs)   bands (ev):

   -45.1076 -21.4302 -21.4295 -21.4085 -12.9032  -5.3579  -4.9222  -4.8958
     1.2003   1.2416   1.8101   7.1188   7.5061   7.8255   8.1856   8.7496
     8.8631  10.3857  10.5539  10.7841  15.0711  15.0974  15.2655  18.0044

          k = 0.2500 0.3500 0.4500 (  2409 PWs)   bands (ev):

   -45.1074 -21.4423 -21.4291 -21.4079 -12.8833  -5.2922  -4.8917  -4.8663
     1.1181   1.2522   1.6122   6.9033   7.4229   7.8774   8.0676   8.7824
     8.8687  10.4055  10.5808  10.8959  15.1288  15.3142  15.4523  18.0260

          k = 0.2500 0.4500 0.4500 (  2410 PWs)   bands (ev):

   -45.1071 -21.4416 -21.4415 -21.4073 -12.8650  -5.1593  -4.8816  -4.8683
     1.1183   1.1427   1.4011   6.7852   7.1822   7.9932   8.0921   8.7374
     8.7832  10.5616  10.6065  11.0590  15.3552  15.3611  15.6038  18.0530

          k = 0.3500 0.3500 0.3500 (  2413 PWs)   bands (ev):

   -45.1072 -21.4293 -21.4285 -21.4285 -12.8738  -5.1864  -4.8697  -4.8697
     1.0450   1.0450   1.5309   7.0680   7.5055   7.5055   8.2099   8.8263
     8.8263  10.6660  10.6660  10.8056  15.3406  15.3406  15.3581  18.7309

          k = 0.3500 0.3500 0.4500 (  2404 PWs)   bands (ev):

   -45.1069 -21.4412 -21.4283 -21.4278 -12.8555  -5.0924  -4.8379  -4.8362
     0.9265   1.0250   1.2966   6.8583   7.3850   7.5066   8.2876   8.8649
     8.8681  10.6504  10.8229  10.9063  15.3988  15.5194  15.5414  18.6370

          k = 0.3500 0.4500 0.4500 (  2418 PWs)   bands (ev):

   -45.1067 -21.4405 -21.4404 -21.4274 -12.8381  -4.9568  -4.8180  -4.8107
     0.8695   0.8988   1.0504   6.7318   7.1872   7.4662   8.5141   8.8674
     8.8841  10.8259  10.8505  11.0500  15.5820  15.5824  15.6854  18.5553

          k = 0.4500 0.4500 0.4500 (  2410 PWs)   bands (ev):

   -45.1064 -21.4398 -21.4397 -21.4397 -12.8213  -4.8230  -4.7771  -4.7771
     0.7530   0.7530   0.8222   6.6195   7.1905   7.1905   8.8100   8.9191
     8.9191  11.0253  11.0253  11.0580  15.7375  15.7375  15.7400  18.5651

     highest occupied, lowest unoccupied level (ev):    11.0791   13.2253

!    total energy              =    -303.30993555 Ry
     Harris-Foulkes estimate   =    -303.30993555 Ry
     estimated scf accuracy    <          2.5E-14 Ry

     The total energy is the sum of the following terms:

     one-electron contribution =     -64.95886206 Ry
     hartree contribution      =      57.91757282 Ry
     xc contribution           =     -84.35398368 Ry
     ewald contribution        =    -211.91466263 Ry

     convergence has been achieved in  15 iterations

     Forces acting on atoms (cartesian axes, Ry/au):

     atom    1 type  3   force =     0.00000000    0.00000000    0.00000000
     atom    2 type  2   force =     0.00000000    0.00000000    0.00000000
     atom    3 type  1   force =     0.00000000    0.00000000    0.00000000
     atom    4 type  1   force =     0.00000000    0.00000000    0.00000000
     atom    5 type  1   force =     0.00000000    0.00000000    0.00000000

     Total force =     0.000000     Total SCF correction =     0.000000


     Computing stress (Cartesian axis) and pressure

          total   stress  (Ry/bohr**3)                   (kbar)     P=   88.59
   0.00060224   0.00000000   0.00000000         88.59      0.00      0.00
   0.00000000   0.00060224   0.00000000          0.00     88.59      0.00
   0.00000000   0.00000000   0.00060224          0.00      0.00     88.59


     Writing output data file bto.save
 
     init_run     :      0.27s CPU      0.90s WALL (       1 calls)
     electrons    :      7.13s CPU      7.34s WALL (       1 calls)
     forces       :      0.07s CPU      0.08s WALL (       1 calls)
     stress       :      0.12s CPU      0.13s WALL (       1 calls)

     Called by init_run:
     wfcinit      :      0.16s CPU      0.33s WALL (       1 calls)
     potinit      :      0.02s CPU      0.03s WALL (       1 calls)

     Called by electrons:
     c_bands      :      6.03s CPU      6.17s WALL (      15 calls)
     sum_band     :      0.87s CPU      0.90s WALL (      15 calls)
     v_of_rho     :      0.04s CPU      0.05s WALL (      16 calls)
     newd         :      0.17s CPU      0.18s WALL (      16 calls)
     mix_rho      :      0.02s CPU      0.02s WALL (      15 calls)

     Called by c_bands:
     init_us_2    :      0.03s CPU      0.05s WALL (    1155 calls)
     cegterg      :      5.76s CPU      5.89s WALL (     525 calls)

     Called by sum_band:
     sum_band:bec :      0.01s CPU      0.01s WALL (     525 calls)
     addusdens    :      0.18s CPU      0.19s WALL (      15 calls)

     Called by *egterg:
     h_psi        :      3.06s CPU      3.24s WALL (    2055 calls)
     s_psi        :      0.06s CPU      0.07s WALL (    2055 calls)
     g_psi        :      0.01s CPU      0.01s WALL (    1495 calls)
     cdiaghg      :      2.04s CPU      2.09s WALL (    2020 calls)

     Called by h_psi:
     h_psi:pot    :      3.06s CPU      3.23s WALL (    2055 calls)
     h_psi:calbec :      0.19s CPU      0.18s WALL (    2055 calls)
     vloc_psi     :      2.80s CPU      2.97s WALL (    2055 calls)
     add_vuspsi   :      0.06s CPU      0.07s WALL (    2055 calls)

     General routines
     calbec       :      0.28s CPU      0.26s WALL (    2755 calls)
     fft          :      0.04s CPU      0.32s WALL (     277 calls)
     ffts         :      0.00s CPU      0.01s WALL (      31 calls)
     fftw         :      3.14s CPU      3.27s WALL (   78694 calls)
     interpolate  :      0.01s CPU      0.01s WALL (      31 calls)
     davcio       :      0.00s CPU      0.07s WALL (      35 calls)
 
     Parallel routines
     fft_scatter  :      1.83s CPU      1.88s WALL (   79002 calls)
 
     PWSCF        :     7.82s CPU         9.51s WALL

 
   This run was terminated on:  11: 9: 2  31Dec2017            

=------------------------------------------------------------------------------=
   JOB DONE.
=------------------------------------------------------------------------------=
