
     Program PWSCF v.6.1 (svn rev. 13369) starts on 31Dec2017 at 11: 9: 7 

     This program is part of the open-source Quantum ESPRESSO suite
     for quantum simulation of materials; please cite
         "P. Giannozzi et al., J. Phys.:Condens. Matter 21 395502 (2009);
          URL http://www.quantum-espresso.org", 
     in publications or presentations arising from this work. More details at
     http://www.quantum-espresso.org/quote

     Parallel version (MPI), running on    28 processors
     R & G space division:  proc/nbgrp/npool/nimage =      28
     Waiting for input...
     Reading input from standard input

     Current dimensions of program PWSCF are:
     Max number of different atomic species (ntypx) = 10
     Max number of k-points (npk) =  40000
     Max angular momentum in pseudopotentials (lmaxx) =  3
               file O.pbe-rrkjus.UPF: wavefunction(s)  2S renormalized

     Subspace diagonalization in iterative solution of the eigenvalue problem:
     a serial algorithm will be used

 
     Parallelization info
     --------------------
     sticks:   dense  smooth     PW     G-vecs:    dense   smooth      PW
     Min          62      31      8                 1956      691     104
     Max          63      32     10                 1961      694     107
     Sum        1749     877    249                54795    19381    2969
 

     Title: 
     cubic BaTiO3 at 7.40 lattice parameter. xc=PZ                              


     bravais-lattice index     =            1
     lattice parameter (alat)  =       7.4000  a.u.
     unit-cell volume          =     405.2240 (a.u.)^3
     number of atoms/cell      =            5
     number of atomic types    =            3
     number of electrons       =        40.00
     number of Kohn-Sham states=           24
     kinetic-energy cutoff     =      50.0000  Ry
     charge density cutoff     =     400.0000  Ry
     convergence threshold     =      1.0E-12
     mixing beta               =       0.6000
     number of iterations used =            8  plain     mixing
     Exchange-correlation      =  SLA  PW   PBE  PBE ( 1  4  3  4 0 0)

     celldm(1)=   7.400000  celldm(2)=   0.000000  celldm(3)=   0.000000
     celldm(4)=   0.000000  celldm(5)=   0.000000  celldm(6)=   0.000000

     crystal axes: (cart. coord. in units of alat)
               a(1) = (   1.000000   0.000000   0.000000 )  
               a(2) = (   0.000000   1.000000   0.000000 )  
               a(3) = (   0.000000   0.000000   1.000000 )  

     reciprocal axes: (cart. coord. in units 2 pi/alat)
               b(1) = (  1.000000  0.000000  0.000000 )  
               b(2) = (  0.000000  1.000000  0.000000 )  
               b(3) = (  0.000000  0.000000  1.000000 )  


     PseudoPot. # 1 for O  read from file:
     ../../PSP_DIR/O.pbe-rrkjus.UPF
     MD5 check sum: 390ba29e75625707450f3bd3f0eb6be9
     Pseudo is Ultrasoft, Zval =  6.0
     Generated by new atomic code, or converted to UPF format
     Using radial grid of 1269 points,  4 beta functions with: 
                l(1) =   0
                l(2) =   0
                l(3) =   1
                l(4) =   1
     Q(r) pseudized with 0 coefficients 


     PseudoPot. # 2 for Ti read from file:
     ../../PSP_DIR/Ti.pbe-sp-van_ak.UPF
     MD5 check sum: 8e4df49b7f0d34bbd5052bf3f5ea0213
     Pseudo is Ultrasoft, Zval = 12.0
     Generated by new atomic code, or converted to UPF format
     Using radial grid of  851 points,  6 beta functions with: 
                l(1) =   0
                l(2) =   0
                l(3) =   1
                l(4) =   1
                l(5) =   2
                l(6) =   2
     Q(r) pseudized with  8 coefficients,  rinner =    1.000   1.000   1.000
                                                       1.000   1.000

     PseudoPot. # 3 for Ba read from file:
     ../../PSP_DIR/Ba.pbe-nsp-van.UPF
     MD5 check sum: a011de417d3466d8e94df216395bc359
     Pseudo is Ultrasoft + core correction, Zval = 10.0
     Generated by new atomic code, or converted to UPF format
     Using radial grid of  907 points,  6 beta functions with: 
                l(1) =   0
                l(2) =   0
                l(3) =   1
                l(4) =   1
                l(5) =   2
                l(6) =   2
     Q(r) pseudized with  6 coefficients,  rinner =    1.200   1.200   1.200
                                                       1.200   1.200

     atomic species   valence    mass     pseudopotential
        O              6.00    15.99000     O ( 1.00)
        Ti            12.00    47.88000     Ti( 1.00)
        Ba            10.00   137.33000     Ba( 1.00)

     48 Sym. Ops., with inversion, found



   Cartesian axes

     site n.     atom                  positions (alat units)
         1           Ba  tau(   1) = (   0.0000000   0.0000000   0.0000000  )
         2           Ti  tau(   2) = (   0.5000000   0.5000000   0.5000000  )
         3           O   tau(   3) = (   0.0000000   0.5000000   0.5000000  )
         4           O   tau(   4) = (   0.5000000   0.0000000   0.5000000  )
         5           O   tau(   5) = (   0.5000000   0.5000000   0.0000000  )

     number of k points=     4
                       cart. coord. in units 2pi/alat
        k(    1) = (   0.1250000   0.1250000   0.1250000), wk =   0.2500000
        k(    2) = (   0.1250000   0.1250000   0.3750000), wk =   0.7500000
        k(    3) = (   0.1250000   0.3750000   0.3750000), wk =   0.7500000
        k(    4) = (   0.3750000   0.3750000   0.3750000), wk =   0.2500000

     Dense  grid:    54795 G-vectors     FFT dimensions: (  48,  48,  48)

     Smooth grid:    19381 G-vectors     FFT dimensions: (  36,  36,  36)

     Estimated max dynamical RAM per process >       1.94MB

     Estimated total allocated dynamical RAM >      54.42MB

     Initial potential from superposition of free atoms

     starting charge   38.98495, renormalised to   40.00000
     Starting wfc are   35 randomized atomic wfcs

     total cpu time spent up to now is        0.3 secs

     per-process dynamical memory:    34.8 Mb

     Self-consistent Calculation

     iteration #  1     ecut=    50.00 Ry     beta=0.60
     Davidson diagonalization with overlap
     ethr =  1.00E-02,  avg # of iterations =  2.5

     total cpu time spent up to now is        0.4 secs

     total energy              =    -302.91037798 Ry
     Harris-Foulkes estimate   =    -303.47661152 Ry
     estimated scf accuracy    <       0.79038764 Ry

     iteration #  2     ecut=    50.00 Ry     beta=0.60
     Davidson diagonalization with overlap
     ethr =  1.98E-03,  avg # of iterations =  4.0

     total cpu time spent up to now is        0.5 secs

     total energy              =    -302.37976905 Ry
     Harris-Foulkes estimate   =    -303.82638492 Ry
     estimated scf accuracy    <       5.42948340 Ry

     iteration #  3     ecut=    50.00 Ry     beta=0.60
     Davidson diagonalization with overlap
     ethr =  1.98E-03,  avg # of iterations =  3.5

     total cpu time spent up to now is        0.6 secs

     total energy              =    -303.31084339 Ry
     Harris-Foulkes estimate   =    -303.35487978 Ry
     estimated scf accuracy    <       0.16460086 Ry

     iteration #  4     ecut=    50.00 Ry     beta=0.60
     Davidson diagonalization with overlap
     ethr =  4.12E-04,  avg # of iterations =  1.2

     total cpu time spent up to now is        0.7 secs

     total energy              =    -303.29837923 Ry
     Harris-Foulkes estimate   =    -303.31913462 Ry
     estimated scf accuracy    <       0.05996784 Ry

     iteration #  5     ecut=    50.00 Ry     beta=0.60
     Davidson diagonalization with overlap
     ethr =  1.50E-04,  avg # of iterations =  3.2

     total cpu time spent up to now is        0.7 secs

     total energy              =    -303.31085870 Ry
     Harris-Foulkes estimate   =    -303.31082235 Ry
     estimated scf accuracy    <       0.00040012 Ry

     iteration #  6     ecut=    50.00 Ry     beta=0.60
     Davidson diagonalization with overlap
     ethr =  1.00E-06,  avg # of iterations =  4.5

     total cpu time spent up to now is        0.8 secs

     total energy              =    -303.31089275 Ry
     Harris-Foulkes estimate   =    -303.31112763 Ry
     estimated scf accuracy    <       0.00047039 Ry

     iteration #  7     ecut=    50.00 Ry     beta=0.60
     Davidson diagonalization with overlap
     ethr =  1.00E-06,  avg # of iterations =  3.8

     total cpu time spent up to now is        0.9 secs

     total energy              =    -303.31100635 Ry
     Harris-Foulkes estimate   =    -303.31101693 Ry
     estimated scf accuracy    <       0.00003196 Ry

     iteration #  8     ecut=    50.00 Ry     beta=0.60
     Davidson diagonalization with overlap
     ethr =  7.99E-08,  avg # of iterations =  2.0

     total cpu time spent up to now is        1.0 secs

     total energy              =    -303.31100850 Ry
     Harris-Foulkes estimate   =    -303.31101011 Ry
     estimated scf accuracy    <       0.00000351 Ry

     iteration #  9     ecut=    50.00 Ry     beta=0.60
     Davidson diagonalization with overlap
     ethr =  8.76E-09,  avg # of iterations =  3.5

     total cpu time spent up to now is        1.1 secs

     total energy              =    -303.31100946 Ry
     Harris-Foulkes estimate   =    -303.31100949 Ry
     estimated scf accuracy    <       0.00000012 Ry

     iteration # 10     ecut=    50.00 Ry     beta=0.60
     Davidson diagonalization with overlap
     ethr =  3.11E-10,  avg # of iterations =  2.8

     total cpu time spent up to now is        1.2 secs

          k = 0.1250 0.1250 0.1250     band energies (ev):

   -45.0934 -21.3731 -21.3721 -21.3721 -13.1161  -5.7377  -5.0795  -5.0795
     1.6067   1.6067   1.9250   8.2762   8.6914   8.6914   9.2597   9.2597
     9.9934  10.1159  10.7607  10.7607  13.6631  13.7386  13.7386  16.3249

          k = 0.1250 0.1250 0.3750     band energies (ev):

   -45.0923 -21.4229 -21.3704 -21.3700 -13.0049  -5.8759  -5.0431  -4.8319
     1.6278   1.7769   2.0813   7.2133   8.1397   8.4042   8.5194   8.8905
     9.7160   9.9108  10.2857  10.3330  13.7917  14.8245  14.8507  16.3176

          k = 0.1250 0.3750 0.3750     band energies (ev):

   -45.0913 -21.4200 -21.4194 -21.3682 -12.9254  -5.5247  -4.9756  -4.9135
     1.4749   1.5222   1.9760   7.0129   7.4031   7.5013   8.5094   8.5814
     9.2386  10.1010  10.3492  10.9270  14.8874  14.9514  15.2955  17.0090

          k = 0.3750 0.3750 0.3750     band energies (ev):

   -45.0903 -21.4174 -21.4168 -21.4168 -12.8575  -5.0827  -4.8432  -4.8432
     0.9527   0.9527   1.3204   6.9391   7.4028   7.4028   8.3425   8.8543
     8.8543  10.7568  10.7568  10.8846  15.4825  15.4825  15.4973  18.8609

     highest occupied, lowest unoccupied level (ev):    10.9270   13.6631

!    total energy              =    -303.31100948 Ry
     Harris-Foulkes estimate   =    -303.31100949 Ry
     estimated scf accuracy    <       0.00000002 Ry

     The total energy is the sum of the following terms:

     one-electron contribution =     -64.96677904 Ry
     hartree contribution      =      57.92443906 Ry
     xc contribution           =     -84.35431665 Ry
     ewald contribution        =    -211.91466263 Ry
     scf correction            =       0.00030978 Ry

     iteration # 11     ecut=    50.00 Ry     beta=0.60
     Davidson diagonalization with overlap
     ethr =  3.84E-11,  avg # of iterations =  3.5

     total cpu time spent up to now is        1.3 secs

     total energy              =    -303.31100949 Ry
     Harris-Foulkes estimate   =    -303.31100949 Ry
     estimated scf accuracy    <          2.1E-09 Ry

     iteration # 12     ecut=    50.00 Ry     beta=0.60
     Davidson diagonalization with overlap
     ethr =  5.36E-12,  avg # of iterations =  2.8

     total cpu time spent up to now is        1.3 secs

     total energy              =    -303.31100949 Ry
     Harris-Foulkes estimate   =    -303.31100949 Ry
     estimated scf accuracy    <          3.4E-11 Ry

     iteration # 13     ecut=    50.00 Ry     beta=0.60
     Davidson diagonalization with overlap
     ethr =  1.00E-13,  avg # of iterations =  3.5

     total cpu time spent up to now is        1.4 secs

     total energy              =    -303.31100949 Ry
     Harris-Foulkes estimate   =    -303.31100949 Ry
     estimated scf accuracy    <          4.5E-12 Ry

     iteration # 14     ecut=    50.00 Ry     beta=0.60
     Davidson diagonalization with overlap
     ethr =  1.00E-13,  avg # of iterations =  1.0

     total cpu time spent up to now is        1.5 secs

     End of self-consistent calculation

          k = 0.1250 0.1250 0.1250 (  2424 PWs)   bands (ev):

   -45.0929 -21.3727 -21.3717 -21.3717 -13.1162  -5.7377  -5.0795  -5.0795
     1.6066   1.6066   1.9249   8.2762   8.6914   8.6914   9.2597   9.2597
     9.9933  10.1159  10.7607  10.7607  13.6633  13.7389  13.7389  16.3252

          k = 0.1250 0.1250 0.3750 (  2419 PWs)   bands (ev):

   -45.0919 -21.4225 -21.3700 -21.3696 -13.0050  -5.8759  -5.0431  -4.8319
     1.6277   1.7769   2.0812   7.2133   8.1397   8.4042   8.5194   8.8905
     9.7160   9.9108  10.2857  10.3330  13.7920  14.8248  14.8510  16.3179

          k = 0.1250 0.3750 0.3750 (  2420 PWs)   bands (ev):

   -45.0909 -21.4196 -21.4190 -21.3678 -12.9255  -5.5247  -4.9756  -4.9135
     1.4748   1.5222   1.9759   7.0130   7.4031   7.5013   8.5094   8.5814
     9.2386  10.1009  10.3492  10.9270  14.8877  14.9517  15.2957  17.0093

          k = 0.3750 0.3750 0.3750 (  2398 PWs)   bands (ev):

   -45.0899 -21.4170 -21.4164 -21.4164 -12.8576  -5.0827  -4.8432  -4.8432
     0.9526   0.9526   1.3203   6.9391   7.4029   7.4029   8.3425   8.8543
     8.8543  10.7568  10.7568  10.8846  15.4828  15.4828  15.4976  18.8610

     highest occupied, lowest unoccupied level (ev):    10.9270   13.6633

!    total energy              =    -303.31100949 Ry
     Harris-Foulkes estimate   =    -303.31100949 Ry
     estimated scf accuracy    <          6.5E-13 Ry

     The total energy is the sum of the following terms:

     one-electron contribution =     -64.96633780 Ry
     hartree contribution      =      57.92430141 Ry
     xc contribution           =     -84.35431046 Ry
     ewald contribution        =    -211.91466263 Ry

     convergence has been achieved in  14 iterations

     Forces acting on atoms (cartesian axes, Ry/au):

     atom    1 type  3   force =     0.00000000   -0.00000000    0.00000000
     atom    2 type  2   force =     0.00000000   -0.00000000    0.00000000
     atom    3 type  1   force =     0.00000000    0.00000000    0.00000000
     atom    4 type  1   force =     0.00000000   -0.00000000    0.00000000
     atom    5 type  1   force =     0.00000000    0.00000000    0.00000000

     Total force =     0.000000     Total SCF correction =     0.000000


     Computing stress (Cartesian axis) and pressure

          total   stress  (Ry/bohr**3)                   (kbar)     P=   88.21
   0.00059961   0.00000000   0.00000000         88.21      0.00      0.00
   0.00000000   0.00059961   0.00000000          0.00     88.21      0.00
   0.00000000   0.00000000   0.00059961          0.00      0.00     88.21


     Writing output data file bto.save
 
     init_run     :      0.11s CPU      0.13s WALL (       1 calls)
     electrons    :      1.14s CPU      1.16s WALL (       1 calls)
     forces       :      0.03s CPU      0.04s WALL (       1 calls)
     stress       :      0.08s CPU      0.08s WALL (       1 calls)

     Called by init_run:
     wfcinit      :      0.02s CPU      0.02s WALL (       1 calls)
     potinit      :      0.01s CPU      0.01s WALL (       1 calls)

     Called by electrons:
     c_bands      :      0.67s CPU      0.69s WALL (      14 calls)
     sum_band     :      0.25s CPU      0.26s WALL (      14 calls)
     v_of_rho     :      0.03s CPU      0.04s WALL (      15 calls)
     newd         :      0.16s CPU      0.16s WALL (      15 calls)
     mix_rho      :      0.01s CPU      0.01s WALL (      14 calls)

     Called by c_bands:
     init_us_2    :      0.00s CPU      0.01s WALL (     124 calls)
     cegterg      :      0.65s CPU      0.65s WALL (      56 calls)

     Called by sum_band:
     sum_band:bec :      0.00s CPU      0.00s WALL (      56 calls)
     addusdens    :      0.17s CPU      0.17s WALL (      14 calls)

     Called by *egterg:
     h_psi        :      0.34s CPU      0.36s WALL (     227 calls)
     s_psi        :      0.01s CPU      0.01s WALL (     227 calls)
     g_psi        :      0.00s CPU      0.00s WALL (     167 calls)
     cdiaghg      :      0.24s CPU      0.22s WALL (     223 calls)

     Called by h_psi:
     h_psi:pot    :      0.34s CPU      0.35s WALL (     227 calls)
     h_psi:calbec :      0.02s CPU      0.02s WALL (     227 calls)
     vloc_psi     :      0.31s CPU      0.33s WALL (     227 calls)
     add_vuspsi   :      0.01s CPU      0.01s WALL (     227 calls)

     General routines
     calbec       :      0.03s CPU      0.03s WALL (     303 calls)
     fft          :      0.02s CPU      0.03s WALL (     261 calls)
     ffts         :      0.00s CPU      0.00s WALL (      29 calls)
     fftw         :      0.33s CPU      0.36s WALL (    8512 calls)
     interpolate  :      0.01s CPU      0.01s WALL (      29 calls)
     davcio       :      0.00s CPU      0.00s WALL (       4 calls)
 
     Parallel routines
     fft_scatter  :      0.22s CPU      0.23s WALL (    8802 calls)
 
     PWSCF        :     1.50s CPU         1.69s WALL

 
   This run was terminated on:  11: 9: 9  31Dec2017            

=------------------------------------------------------------------------------=
   JOB DONE.
=------------------------------------------------------------------------------=
