
     Program PWSCF v.6.1 (svn rev. 13369) starts on 31Dec2017 at 11: 9:10 

     This program is part of the open-source Quantum ESPRESSO suite
     for quantum simulation of materials; please cite
         "P. Giannozzi et al., J. Phys.:Condens. Matter 21 395502 (2009);
          URL http://www.quantum-espresso.org", 
     in publications or presentations arising from this work. More details at
     http://www.quantum-espresso.org/quote

     Parallel version (MPI), running on    28 processors
     R & G space division:  proc/nbgrp/npool/nimage =      28
     Waiting for input...
     Reading input from standard input

     Current dimensions of program PWSCF are:
     Max number of different atomic species (ntypx) = 10
     Max number of k-points (npk) =  40000
     Max angular momentum in pseudopotentials (lmaxx) =  3
               file O.pbe-rrkjus.UPF: wavefunction(s)  2S renormalized

     Subspace diagonalization in iterative solution of the eigenvalue problem:
     a serial algorithm will be used

 
     Parallelization info
     --------------------
     sticks:   dense  smooth     PW     G-vecs:    dense   smooth      PW
     Min          62      31      9                 1956      691     107
     Max          63      32     10                 1961      694     111
     Sum        1749     877    253                54795    19381    3071
 

     Title: 
     cubic BaTiO3 at 7.40 lattice parameter. xc=PZ                              


     bravais-lattice index     =            1
     lattice parameter (alat)  =       7.4000  a.u.
     unit-cell volume          =     405.2240 (a.u.)^3
     number of atoms/cell      =            5
     number of atomic types    =            3
     number of electrons       =        40.00
     number of Kohn-Sham states=           24
     kinetic-energy cutoff     =      50.0000  Ry
     charge density cutoff     =     400.0000  Ry
     convergence threshold     =      1.0E-12
     mixing beta               =       0.6000
     number of iterations used =            8  plain     mixing
     Exchange-correlation      =  SLA  PW   PBE  PBE ( 1  4  3  4 0 0)

     celldm(1)=   7.400000  celldm(2)=   0.000000  celldm(3)=   0.000000
     celldm(4)=   0.000000  celldm(5)=   0.000000  celldm(6)=   0.000000

     crystal axes: (cart. coord. in units of alat)
               a(1) = (   1.000000   0.000000   0.000000 )  
               a(2) = (   0.000000   1.000000   0.000000 )  
               a(3) = (   0.000000   0.000000   1.000000 )  

     reciprocal axes: (cart. coord. in units 2 pi/alat)
               b(1) = (  1.000000  0.000000  0.000000 )  
               b(2) = (  0.000000  1.000000  0.000000 )  
               b(3) = (  0.000000  0.000000  1.000000 )  


     PseudoPot. # 1 for O  read from file:
     ../../PSP_DIR/O.pbe-rrkjus.UPF
     MD5 check sum: 390ba29e75625707450f3bd3f0eb6be9
     Pseudo is Ultrasoft, Zval =  6.0
     Generated by new atomic code, or converted to UPF format
     Using radial grid of 1269 points,  4 beta functions with: 
                l(1) =   0
                l(2) =   0
                l(3) =   1
                l(4) =   1
     Q(r) pseudized with 0 coefficients 


     PseudoPot. # 2 for Ti read from file:
     ../../PSP_DIR/Ti.pbe-sp-van_ak.UPF
     MD5 check sum: 8e4df49b7f0d34bbd5052bf3f5ea0213
     Pseudo is Ultrasoft, Zval = 12.0
     Generated by new atomic code, or converted to UPF format
     Using radial grid of  851 points,  6 beta functions with: 
                l(1) =   0
                l(2) =   0
                l(3) =   1
                l(4) =   1
                l(5) =   2
                l(6) =   2
     Q(r) pseudized with  8 coefficients,  rinner =    1.000   1.000   1.000
                                                       1.000   1.000

     PseudoPot. # 3 for Ba read from file:
     ../../PSP_DIR/Ba.pbe-nsp-van.UPF
     MD5 check sum: a011de417d3466d8e94df216395bc359
     Pseudo is Ultrasoft + core correction, Zval = 10.0
     Generated by new atomic code, or converted to UPF format
     Using radial grid of  907 points,  6 beta functions with: 
                l(1) =   0
                l(2) =   0
                l(3) =   1
                l(4) =   1
                l(5) =   2
                l(6) =   2
     Q(r) pseudized with  6 coefficients,  rinner =    1.200   1.200   1.200
                                                       1.200   1.200

     atomic species   valence    mass     pseudopotential
        O              6.00    15.99000     O ( 1.00)
        Ti            12.00    47.88000     Ti( 1.00)
        Ba            10.00   137.33000     Ba( 1.00)

     48 Sym. Ops., with inversion, found



   Cartesian axes

     site n.     atom                  positions (alat units)
         1           Ba  tau(   1) = (   0.0000000   0.0000000   0.0000000  )
         2           Ti  tau(   2) = (   0.5000000   0.5000000   0.5000000  )
         3           O   tau(   3) = (   0.0000000   0.5000000   0.5000000  )
         4           O   tau(   4) = (   0.5000000   0.0000000   0.5000000  )
         5           O   tau(   5) = (   0.5000000   0.5000000   0.0000000  )

     number of k points=    10
                       cart. coord. in units 2pi/alat
        k(    1) = (   0.0833333   0.0833333   0.0833333), wk =   0.0740741
        k(    2) = (   0.0833333   0.0833333   0.2500000), wk =   0.2222222
        k(    3) = (   0.0833333   0.0833333   0.4166667), wk =   0.2222222
        k(    4) = (   0.0833333   0.2500000   0.2500000), wk =   0.2222222
        k(    5) = (   0.0833333   0.2500000   0.4166667), wk =   0.4444444
        k(    6) = (   0.0833333   0.4166667   0.4166667), wk =   0.2222222
        k(    7) = (   0.2500000   0.2500000   0.2500000), wk =   0.0740741
        k(    8) = (   0.2500000   0.2500000   0.4166667), wk =   0.2222222
        k(    9) = (   0.2500000   0.4166667   0.4166667), wk =   0.2222222
        k(   10) = (   0.4166667   0.4166667   0.4166667), wk =   0.0740741

     Dense  grid:    54795 G-vectors     FFT dimensions: (  48,  48,  48)

     Smooth grid:    19381 G-vectors     FFT dimensions: (  36,  36,  36)

     Estimated max dynamical RAM per process >       2.13MB

     Estimated total allocated dynamical RAM >      59.71MB

     Initial potential from superposition of free atoms

     starting charge   38.98495, renormalised to   40.00000
     Starting wfc are   35 randomized atomic wfcs

     total cpu time spent up to now is        0.4 secs

     per-process dynamical memory:    34.8 Mb

     Self-consistent Calculation

     iteration #  1     ecut=    50.00 Ry     beta=0.60
     Davidson diagonalization with overlap
     ethr =  1.00E-02,  avg # of iterations =  2.5

     total cpu time spent up to now is        0.5 secs

     total energy              =    -302.90778155 Ry
     Harris-Foulkes estimate   =    -303.47602171 Ry
     estimated scf accuracy    <       0.79311112 Ry

     iteration #  2     ecut=    50.00 Ry     beta=0.60
     Davidson diagonalization with overlap
     ethr =  1.98E-03,  avg # of iterations =  4.0

     total cpu time spent up to now is        0.7 secs

     total energy              =    -302.36937130 Ry
     Harris-Foulkes estimate   =    -303.83081142 Ry
     estimated scf accuracy    <       5.50192694 Ry

     iteration #  3     ecut=    50.00 Ry     beta=0.60
     Davidson diagonalization with overlap
     ethr =  1.98E-03,  avg # of iterations =  3.4

     total cpu time spent up to now is        0.9 secs

     total energy              =    -303.31012126 Ry
     Harris-Foulkes estimate   =    -303.35410317 Ry
     estimated scf accuracy    <       0.16577363 Ry

     iteration #  4     ecut=    50.00 Ry     beta=0.60
     Davidson diagonalization with overlap
     ethr =  4.14E-04,  avg # of iterations =  1.4

     total cpu time spent up to now is        1.0 secs

     total energy              =    -303.29717584 Ry
     Harris-Foulkes estimate   =    -303.31845761 Ry
     estimated scf accuracy    <       0.06162195 Ry

     iteration #  5     ecut=    50.00 Ry     beta=0.60
     Davidson diagonalization with overlap
     ethr =  1.54E-04,  avg # of iterations =  3.1

     total cpu time spent up to now is        1.2 secs

     total energy              =    -303.30984808 Ry
     Harris-Foulkes estimate   =    -303.30981009 Ry
     estimated scf accuracy    <       0.00037263 Ry

     iteration #  6     ecut=    50.00 Ry     beta=0.60
     Davidson diagonalization with overlap
     ethr =  9.32E-07,  avg # of iterations =  4.3

     total cpu time spent up to now is        1.4 secs

     total energy              =    -303.30988005 Ry
     Harris-Foulkes estimate   =    -303.31008754 Ry
     estimated scf accuracy    <       0.00042740 Ry

     iteration #  7     ecut=    50.00 Ry     beta=0.60
     Davidson diagonalization with overlap
     ethr =  9.32E-07,  avg # of iterations =  3.3

     total cpu time spent up to now is        1.6 secs

     total energy              =    -303.30998141 Ry
     Harris-Foulkes estimate   =    -303.30999081 Ry
     estimated scf accuracy    <       0.00002988 Ry

     iteration #  8     ecut=    50.00 Ry     beta=0.60
     Davidson diagonalization with overlap
     ethr =  7.47E-08,  avg # of iterations =  2.2

     total cpu time spent up to now is        1.7 secs

     total energy              =    -303.30998410 Ry
     Harris-Foulkes estimate   =    -303.30998538 Ry
     estimated scf accuracy    <       0.00000286 Ry

     iteration #  9     ecut=    50.00 Ry     beta=0.60
     Davidson diagonalization with overlap
     ethr =  7.15E-09,  avg # of iterations =  3.6

     total cpu time spent up to now is        1.9 secs

     total energy              =    -303.30998495 Ry
     Harris-Foulkes estimate   =    -303.30998497 Ry
     estimated scf accuracy    <       0.00000006 Ry

     iteration # 10     ecut=    50.00 Ry     beta=0.60
     Davidson diagonalization with overlap
     ethr =  1.54E-10,  avg # of iterations =  3.1

     total cpu time spent up to now is        2.0 secs

          k = 0.0833 0.0833 0.0833     band energies (ev):

   -45.1093 -21.3821 -21.3816 -21.3816 -13.1523  -5.7380  -5.0912  -5.0912
     1.6112   1.6112   1.7620   8.6204   8.8299   8.8299   9.5207   9.5207
     9.9042  10.6121  10.9296  10.9296  13.3847  13.4387  13.4387  15.9462

          k = 0.0833 0.0833 0.2500     band energies (ev):

   -45.1087 -21.4129 -21.3805 -21.3803 -13.0811  -5.8217  -5.0753  -4.9745
     1.6676   1.6797   1.9753   7.8777   8.5511   8.6379   9.1196   9.1249
     9.8211   9.9380  10.6241  10.6310  13.4587  14.1961  14.2041  15.9486

          k = 0.0833 0.0833 0.4167     band energies (ev):

   -45.1080 -21.4437 -21.3792 -21.3790 -13.0075  -5.9901  -5.0593  -4.7476
     1.7251   1.8546   2.0734   7.1123   8.3181   8.3914   8.5806   8.9485
     9.6494   9.8421  10.2664  10.3659  13.5018  14.9202  14.9315  15.9447

          k = 0.0833 0.2500 0.2500     band energies (ev):

   -45.1080 -21.4118 -21.4105 -21.3792 -13.0220  -5.7276  -5.0362  -4.9842
     1.5741   1.6874   2.0901   7.5593   8.0787   8.3120   8.7081   8.8994
     9.5043  10.1096  10.2455  10.7156  14.1719  14.3095  14.5651  16.4713

          k = 0.0833 0.2500 0.4167     band energies (ev):

   -45.1074 -21.4416 -21.4094 -21.3779 -12.9611  -5.7462  -5.0043  -4.8552
     1.5821   1.7621   2.0205   7.0347   7.6897   7.9372   8.4140   8.7781
     9.6086   9.9448  10.1241  10.6830  14.2777  14.9587  15.0966  16.5722

          k = 0.0833 0.4167 0.4167     band energies (ev):

   -45.1068 -21.4396 -21.4393 -21.3768 -12.9134  -5.4935  -4.9765  -4.9320
     1.5305   1.5848   1.9974   6.8757   7.2424   7.2547   8.4382   8.4621
     9.3567  10.2042  10.3539  11.0284  14.9716  15.0078  15.4149  16.7723

          k = 0.2500 0.2500 0.2500     band energies (ev):

   -45.1074 -21.4106 -21.4091 -21.4091 -12.9706  -5.5578  -4.9859  -4.9859
     1.4085   1.4085   2.1558   7.3405   8.0312   8.0312   8.5911   8.7965
     8.7965  10.4220  10.4752  10.4752  14.6620  14.6754  14.6754  17.7296

          k = 0.2500 0.2500 0.4167     band energies (ev):

   -45.1068 -21.4397 -21.4084 -21.4076 -12.9179  -5.4889  -4.9338  -4.8744
     1.2438   1.4259   1.8938   7.0095   7.6940   8.0028   8.0767   8.8000
     8.9664  10.2349  10.5575  10.5929  14.7694  15.1690  15.2166  17.6981

          k = 0.2500 0.4167 0.4167     band energies (ev):

   -45.1062 -21.4380 -21.4377 -21.4066 -12.8738  -5.2180  -4.8913  -4.8659
     1.1240   1.1654   1.5180   6.8758   7.2575   7.9194   8.1091   8.7398
     8.8347  10.4895  10.5945  10.9897  15.2865  15.3007  15.5264  18.0592

          k = 0.4167 0.4167 0.4167     band energies (ev):

   -45.1056 -21.4364 -21.4361 -21.4361 -12.8333  -4.9200  -4.8004  -4.8004
     0.8252   0.8252   1.0070   6.7368   7.2636   7.2636   8.6196   8.8958
     8.8958  10.9196  10.9196  10.9976  15.6459  15.6459  15.6532  18.7437

     highest occupied, lowest unoccupied level (ev):    11.0284   13.3847

!    total energy              =    -303.30998497 Ry
     Harris-Foulkes estimate   =    -303.30998497 Ry
     estimated scf accuracy    <          1.8E-09 Ry

     The total energy is the sum of the following terms:

     one-electron contribution =     -64.95938120 Ry
     hartree contribution      =      57.91808363 Ry
     xc contribution           =     -84.35401814 Ry
     ewald contribution        =    -211.91466263 Ry
     scf correction            =      -0.00000663 Ry

     iteration # 11     ecut=    50.00 Ry     beta=0.60
     Davidson diagonalization with overlap
     ethr =  4.53E-12,  avg # of iterations =  3.5

     total cpu time spent up to now is        2.2 secs

     total energy              =    -303.30998497 Ry
     Harris-Foulkes estimate   =    -303.30998497 Ry
     estimated scf accuracy    <          8.1E-10 Ry

     iteration # 12     ecut=    50.00 Ry     beta=0.60
     Davidson diagonalization with overlap
     ethr =  2.02E-12,  avg # of iterations =  2.8

     total cpu time spent up to now is        2.3 secs

     total energy              =    -303.30998497 Ry
     Harris-Foulkes estimate   =    -303.30998497 Ry
     estimated scf accuracy    <          2.6E-12 Ry

     iteration # 13     ecut=    50.00 Ry     beta=0.60
     Davidson diagonalization with overlap
     ethr =  1.00E-13,  avg # of iterations =  3.1

     total cpu time spent up to now is        2.5 secs

     End of self-consistent calculation

          k = 0.0833 0.0833 0.0833 (  2436 PWs)   bands (ev):

   -45.1092 -21.3820 -21.3815 -21.3815 -13.1523  -5.7380  -5.0912  -5.0912
     1.6112   1.6112   1.7621   8.6204   8.8299   8.8299   9.5207   9.5207
     9.9042  10.6121  10.9296  10.9296  13.3848  13.4388  13.4388  15.9463

          k = 0.0833 0.0833 0.2500 (  2420 PWs)   bands (ev):

   -45.1086 -21.4128 -21.3805 -21.3802 -13.0811  -5.8217  -5.0753  -4.9745
     1.6676   1.6797   1.9753   7.8777   8.5511   8.6379   9.1196   9.1249
     9.8211   9.9380  10.6240  10.6310  13.4587  14.1962  14.2042  15.9486

          k = 0.0833 0.0833 0.4167 (  2426 PWs)   bands (ev):

   -45.1080 -21.4436 -21.3791 -21.3789 -13.0075  -5.9901  -5.0593  -4.7476
     1.7252   1.8546   2.0734   7.1123   8.3181   8.3913   8.5806   8.9485
     9.6494   9.8421  10.2664  10.3658  13.5019  14.9203  14.9315  15.9447

          k = 0.0833 0.2500 0.2500 (  2417 PWs)   bands (ev):

   -45.1080 -21.4117 -21.4105 -21.3791 -13.0220  -5.7276  -5.0362  -4.9842
     1.5741   1.6875   2.0901   7.5593   8.0787   8.3120   8.7081   8.8994
     9.5043  10.1096  10.2455  10.7156  14.1719  14.3096  14.5652  16.4713

          k = 0.0833 0.2500 0.4167 (  2419 PWs)   bands (ev):

   -45.1073 -21.4415 -21.4094 -21.3779 -12.9611  -5.7463  -5.0043  -4.8553
     1.5821   1.7621   2.0206   7.0347   7.6897   7.9372   8.4140   8.7781
     9.6086   9.9448  10.1241  10.6830  14.2778  14.9588  15.0967  16.5723

          k = 0.0833 0.4167 0.4167 (  2427 PWs)   bands (ev):

   -45.1067 -21.4396 -21.4393 -21.3767 -12.9134  -5.4935  -4.9765  -4.9320
     1.5305   1.5848   1.9974   6.8757   7.2424   7.2547   8.4382   8.4621
     9.3566  10.2042  10.3539  11.0284  14.9717  15.0079  15.4150  16.7724

          k = 0.2500 0.2500 0.2500 (  2425 PWs)   bands (ev):

   -45.1074 -21.4106 -21.4090 -21.4090 -12.9706  -5.5578  -4.9859  -4.9859
     1.4085   1.4085   2.1558   7.3405   8.0311   8.0311   8.5911   8.7965
     8.7965  10.4220  10.4752  10.4752  14.6620  14.6754  14.6754  17.7297

          k = 0.2500 0.2500 0.4167 (  2425 PWs)   bands (ev):

   -45.1067 -21.4397 -21.4084 -21.4076 -12.9179  -5.4889  -4.9339  -4.8744
     1.2438   1.4260   1.8938   7.0095   7.6940   8.0027   8.0767   8.8000
     8.9664  10.2349  10.5575  10.5929  14.7695  15.1691  15.2166  17.6981

          k = 0.2500 0.4167 0.4167 (  2416 PWs)   bands (ev):

   -45.1061 -21.4379 -21.4377 -21.4066 -12.8738  -5.2180  -4.8913  -4.8659
     1.1240   1.1654   1.5180   6.8758   7.2575   7.9194   8.1090   8.7398
     8.8347  10.4895  10.5945  10.9897  15.2866  15.3007  15.5265  18.0592

          k = 0.4167 0.4167 0.4167 (  2410 PWs)   bands (ev):

   -45.1055 -21.4364 -21.4361 -21.4361 -12.8333  -4.9200  -4.8005  -4.8005
     0.8252   0.8252   1.0070   6.7368   7.2636   7.2636   8.6196   8.8958
     8.8958  10.9196  10.9196  10.9976  15.6460  15.6460  15.6532  18.7437

     highest occupied, lowest unoccupied level (ev):    11.0284   13.3848

!    total energy              =    -303.30998497 Ry
     Harris-Foulkes estimate   =    -303.30998497 Ry
     estimated scf accuracy    <          8.6E-13 Ry

     The total energy is the sum of the following terms:

     one-electron contribution =     -64.95934097 Ry
     hartree contribution      =      57.91803548 Ry
     xc contribution           =     -84.35401685 Ry
     ewald contribution        =    -211.91466263 Ry

     convergence has been achieved in  13 iterations

     Forces acting on atoms (cartesian axes, Ry/au):

     atom    1 type  3   force =     0.00000000    0.00000000    0.00000000
     atom    2 type  2   force =     0.00000000    0.00000000    0.00000000
     atom    3 type  1   force =     0.00000000   -0.00000000    0.00000000
     atom    4 type  1   force =     0.00000000    0.00000000    0.00000000
     atom    5 type  1   force =     0.00000000    0.00000000    0.00000000

     Total force =     0.000000     Total SCF correction =     0.000000


     Computing stress (Cartesian axis) and pressure

          total   stress  (Ry/bohr**3)                   (kbar)     P=   88.59
   0.00060220   0.00000000   0.00000000         88.59      0.00      0.00
   0.00000000   0.00060220   0.00000000          0.00     88.59      0.00
   0.00000000   0.00000000   0.00060220          0.00      0.00     88.59


     Writing output data file bto.save
 
     init_run     :      0.14s CPU      0.16s WALL (       1 calls)
     electrons    :      2.10s CPU      2.15s WALL (       1 calls)
     forces       :      0.04s CPU      0.04s WALL (       1 calls)
     stress       :      0.09s CPU      0.09s WALL (       1 calls)

     Called by init_run:
     wfcinit      :      0.05s CPU      0.05s WALL (       1 calls)
     potinit      :      0.01s CPU      0.01s WALL (       1 calls)

     Called by electrons:
     c_bands      :      1.58s CPU      1.61s WALL (      13 calls)
     sum_band     :      0.33s CPU      0.35s WALL (      13 calls)
     v_of_rho     :      0.03s CPU      0.03s WALL (      14 calls)
     newd         :      0.15s CPU      0.15s WALL (      14 calls)
     mix_rho      :      0.01s CPU      0.01s WALL (      13 calls)

     Called by c_bands:
     init_us_2    :      0.01s CPU      0.01s WALL (     290 calls)
     cegterg      :      1.52s CPU      1.53s WALL (     130 calls)

     Called by sum_band:
     sum_band:bec :      0.00s CPU      0.00s WALL (     130 calls)
     addusdens    :      0.16s CPU      0.16s WALL (      13 calls)

     Called by *egterg:
     h_psi        :      0.78s CPU      0.83s WALL (     543 calls)
     s_psi        :      0.02s CPU      0.02s WALL (     543 calls)
     g_psi        :      0.00s CPU      0.00s WALL (     403 calls)
     cdiaghg      :      0.59s CPU      0.52s WALL (     533 calls)

     Called by h_psi:
     h_psi:pot    :      0.78s CPU      0.83s WALL (     543 calls)
     h_psi:calbec :      0.06s CPU      0.05s WALL (     543 calls)
     vloc_psi     :      0.71s CPU      0.76s WALL (     543 calls)
     add_vuspsi   :      0.01s CPU      0.02s WALL (     543 calls)

     General routines
     calbec       :      0.08s CPU      0.07s WALL (     723 calls)
     fft          :      0.02s CPU      0.03s WALL (     245 calls)
     ffts         :      0.00s CPU      0.00s WALL (      27 calls)
     fftw         :      0.79s CPU      0.83s WALL (   19876 calls)
     interpolate  :      0.00s CPU      0.01s WALL (      27 calls)
     davcio       :      0.00s CPU      0.00s WALL (      10 calls)
 
     Parallel routines
     fft_scatter  :      0.48s CPU      0.49s WALL (   20148 calls)
 
     PWSCF        :     2.52s CPU         2.73s WALL

 
   This run was terminated on:  11: 9:13  31Dec2017            

=------------------------------------------------------------------------------=
   JOB DONE.
=------------------------------------------------------------------------------=
