
     Program PWSCF v.6.1 (svn rev. 13369) starts on 31Dec2017 at 11: 9: 4 

     This program is part of the open-source Quantum ESPRESSO suite
     for quantum simulation of materials; please cite
         "P. Giannozzi et al., J. Phys.:Condens. Matter 21 395502 (2009);
          URL http://www.quantum-espresso.org", 
     in publications or presentations arising from this work. More details at
     http://www.quantum-espresso.org/quote

     Parallel version (MPI), running on    28 processors
     R & G space division:  proc/nbgrp/npool/nimage =      28
     Waiting for input...
     Reading input from standard input

     Current dimensions of program PWSCF are:
     Max number of different atomic species (ntypx) = 10
     Max number of k-points (npk) =  40000
     Max angular momentum in pseudopotentials (lmaxx) =  3
               file O.pbe-rrkjus.UPF: wavefunction(s)  2S renormalized

     Subspace diagonalization in iterative solution of the eigenvalue problem:
     a serial algorithm will be used

 
     Parallelization info
     --------------------
     sticks:   dense  smooth     PW     G-vecs:    dense   smooth      PW
     Min          62      31      8                 1956      691      98
     Max          63      32      9                 1961      694     103
     Sum        1749     877    241                54795    19381    2801
 

     Title: 
     cubic BaTiO3 at 7.40 lattice parameter. xc=PZ                              


     bravais-lattice index     =            1
     lattice parameter (alat)  =       7.4000  a.u.
     unit-cell volume          =     405.2240 (a.u.)^3
     number of atoms/cell      =            5
     number of atomic types    =            3
     number of electrons       =        40.00
     number of Kohn-Sham states=           24
     kinetic-energy cutoff     =      50.0000  Ry
     charge density cutoff     =     400.0000  Ry
     convergence threshold     =      1.0E-12
     mixing beta               =       0.6000
     number of iterations used =            8  plain     mixing
     Exchange-correlation      =  SLA  PW   PBE  PBE ( 1  4  3  4 0 0)

     celldm(1)=   7.400000  celldm(2)=   0.000000  celldm(3)=   0.000000
     celldm(4)=   0.000000  celldm(5)=   0.000000  celldm(6)=   0.000000

     crystal axes: (cart. coord. in units of alat)
               a(1) = (   1.000000   0.000000   0.000000 )  
               a(2) = (   0.000000   1.000000   0.000000 )  
               a(3) = (   0.000000   0.000000   1.000000 )  

     reciprocal axes: (cart. coord. in units 2 pi/alat)
               b(1) = (  1.000000  0.000000  0.000000 )  
               b(2) = (  0.000000  1.000000  0.000000 )  
               b(3) = (  0.000000  0.000000  1.000000 )  


     PseudoPot. # 1 for O  read from file:
     ../../PSP_DIR/O.pbe-rrkjus.UPF
     MD5 check sum: 390ba29e75625707450f3bd3f0eb6be9
     Pseudo is Ultrasoft, Zval =  6.0
     Generated by new atomic code, or converted to UPF format
     Using radial grid of 1269 points,  4 beta functions with: 
                l(1) =   0
                l(2) =   0
                l(3) =   1
                l(4) =   1
     Q(r) pseudized with 0 coefficients 


     PseudoPot. # 2 for Ti read from file:
     ../../PSP_DIR/Ti.pbe-sp-van_ak.UPF
     MD5 check sum: 8e4df49b7f0d34bbd5052bf3f5ea0213
     Pseudo is Ultrasoft, Zval = 12.0
     Generated by new atomic code, or converted to UPF format
     Using radial grid of  851 points,  6 beta functions with: 
                l(1) =   0
                l(2) =   0
                l(3) =   1
                l(4) =   1
                l(5) =   2
                l(6) =   2
     Q(r) pseudized with  8 coefficients,  rinner =    1.000   1.000   1.000
                                                       1.000   1.000

     PseudoPot. # 3 for Ba read from file:
     ../../PSP_DIR/Ba.pbe-nsp-van.UPF
     MD5 check sum: a011de417d3466d8e94df216395bc359
     Pseudo is Ultrasoft + core correction, Zval = 10.0
     Generated by new atomic code, or converted to UPF format
     Using radial grid of  907 points,  6 beta functions with: 
                l(1) =   0
                l(2) =   0
                l(3) =   1
                l(4) =   1
                l(5) =   2
                l(6) =   2
     Q(r) pseudized with  6 coefficients,  rinner =    1.200   1.200   1.200
                                                       1.200   1.200

     atomic species   valence    mass     pseudopotential
        O              6.00    15.99000     O ( 1.00)
        Ti            12.00    47.88000     Ti( 1.00)
        Ba            10.00   137.33000     Ba( 1.00)

     48 Sym. Ops., with inversion, found



   Cartesian axes

     site n.     atom                  positions (alat units)
         1           Ba  tau(   1) = (   0.0000000   0.0000000   0.0000000  )
         2           Ti  tau(   2) = (   0.5000000   0.5000000   0.5000000  )
         3           O   tau(   3) = (   0.0000000   0.5000000   0.5000000  )
         4           O   tau(   4) = (   0.5000000   0.0000000   0.5000000  )
         5           O   tau(   5) = (   0.5000000   0.5000000   0.0000000  )

     number of k points=     1
                       cart. coord. in units 2pi/alat
        k(    1) = (   0.2500000   0.2500000   0.2500000), wk =   2.0000000

     Dense  grid:    54795 G-vectors     FFT dimensions: (  48,  48,  48)

     Smooth grid:    19381 G-vectors     FFT dimensions: (  36,  36,  36)

     Estimated max dynamical RAM per process >       1.88MB

     Estimated total allocated dynamical RAM >      52.67MB

     Initial potential from superposition of free atoms

     starting charge   38.98495, renormalised to   40.00000
     Starting wfc are   35 randomized atomic wfcs

     total cpu time spent up to now is        0.3 secs

     per-process dynamical memory:    34.8 Mb

     Self-consistent Calculation

     iteration #  1     ecut=    50.00 Ry     beta=0.60
     Davidson diagonalization with overlap
     ethr =  1.00E-02,  avg # of iterations =  2.0

     total cpu time spent up to now is        0.4 secs

     total energy              =    -302.95549962 Ry
     Harris-Foulkes estimate   =    -303.49210572 Ry
     estimated scf accuracy    <       0.75341607 Ry

     iteration #  2     ecut=    50.00 Ry     beta=0.60
     Davidson diagonalization with overlap
     ethr =  1.88E-03,  avg # of iterations =  4.0

     total cpu time spent up to now is        0.4 secs

     total energy              =    -302.61472331 Ry
     Harris-Foulkes estimate   =    -303.78841997 Ry
     estimated scf accuracy    <       4.07415189 Ry

     iteration #  3     ecut=    50.00 Ry     beta=0.60
     Davidson diagonalization with overlap
     ethr =  1.88E-03,  avg # of iterations =  3.0

     total cpu time spent up to now is        0.5 secs

     total energy              =    -303.33493188 Ry
     Harris-Foulkes estimate   =    -303.37342635 Ry
     estimated scf accuracy    <       0.13065859 Ry

     iteration #  4     ecut=    50.00 Ry     beta=0.60
     Davidson diagonalization with overlap
     ethr =  3.27E-04,  avg # of iterations =  2.0

     total cpu time spent up to now is        0.5 secs

     total energy              =    -303.33085953 Ry
     Harris-Foulkes estimate   =    -303.34355211 Ry
     estimated scf accuracy    <       0.03530264 Ry

     iteration #  5     ecut=    50.00 Ry     beta=0.60
     Davidson diagonalization with overlap
     ethr =  8.83E-05,  avg # of iterations =  3.0

     total cpu time spent up to now is        0.5 secs

     total energy              =    -303.33993864 Ry
     Harris-Foulkes estimate   =    -303.34003310 Ry
     estimated scf accuracy    <       0.00110031 Ry

     iteration #  6     ecut=    50.00 Ry     beta=0.60
     Davidson diagonalization with overlap
     ethr =  2.75E-06,  avg # of iterations =  4.0

     total cpu time spent up to now is        0.6 secs

     total energy              =    -303.33981431 Ry
     Harris-Foulkes estimate   =    -303.34008359 Ry
     estimated scf accuracy    <       0.00052688 Ry

     iteration #  7     ecut=    50.00 Ry     beta=0.60
     Davidson diagonalization with overlap
     ethr =  1.32E-06,  avg # of iterations =  3.0

     total cpu time spent up to now is        0.6 secs

     total energy              =    -303.33995323 Ry
     Harris-Foulkes estimate   =    -303.33997778 Ry
     estimated scf accuracy    <       0.00005449 Ry

     iteration #  8     ecut=    50.00 Ry     beta=0.60
     Davidson diagonalization with overlap
     ethr =  1.36E-07,  avg # of iterations =  3.0

     total cpu time spent up to now is        0.7 secs

     total energy              =    -303.33996443 Ry
     Harris-Foulkes estimate   =    -303.33996444 Ry
     estimated scf accuracy    <       0.00000012 Ry

     iteration #  9     ecut=    50.00 Ry     beta=0.60
     Davidson diagonalization with overlap
     ethr =  2.89E-10,  avg # of iterations =  4.0

     total cpu time spent up to now is        0.7 secs

     total energy              =    -303.33996475 Ry
     Harris-Foulkes estimate   =    -303.33996479 Ry
     estimated scf accuracy    <       0.00000008 Ry

     iteration # 10     ecut=    50.00 Ry     beta=0.60
     Davidson diagonalization with overlap
     ethr =  2.03E-10,  avg # of iterations =  2.0

     total cpu time spent up to now is        0.7 secs

          k = 0.2500 0.2500 0.2500     band energies (ev):

   -44.8391 -21.1585 -21.1569 -21.1569 -13.0238  -5.5493  -4.9759  -4.9759
     1.3663   1.3663   2.1081   7.3631   8.0771   8.0771   8.6157   8.8180
     8.8180  10.4260  10.4841  10.4841  14.8455  14.8504  14.8504  17.9127

     highest occupied, lowest unoccupied level (ev):    10.4841   14.8455

!    total energy              =    -303.33996476 Ry
     Harris-Foulkes estimate   =    -303.33996476 Ry
     estimated scf accuracy    <          3.6E-09 Ry

     The total energy is the sum of the following terms:

     one-electron contribution =     -65.13603255 Ry
     hartree contribution      =      58.07979243 Ry
     xc contribution           =     -84.36931286 Ry
     ewald contribution        =    -211.91466263 Ry
     scf correction            =       0.00025086 Ry

     iteration # 11     ecut=    50.00 Ry     beta=0.60
     Davidson diagonalization with overlap
     ethr =  9.09E-12,  avg # of iterations =  4.0

     total cpu time spent up to now is        0.8 secs

     total energy              =    -303.33996476 Ry
     Harris-Foulkes estimate   =    -303.33996476 Ry
     estimated scf accuracy    <          6.8E-10 Ry

     iteration # 12     ecut=    50.00 Ry     beta=0.60
     Davidson diagonalization with overlap
     ethr =  1.70E-12,  avg # of iterations =  3.0

     total cpu time spent up to now is        0.8 secs

     total energy              =    -303.33996476 Ry
     Harris-Foulkes estimate   =    -303.33996476 Ry
     estimated scf accuracy    <          2.6E-11 Ry

     iteration # 13     ecut=    50.00 Ry     beta=0.60
     Davidson diagonalization with overlap
     ethr =  1.00E-13,  avg # of iterations =  3.0

     total cpu time spent up to now is        0.9 secs

     total energy              =    -303.33996476 Ry
     Harris-Foulkes estimate   =    -303.33996476 Ry
     estimated scf accuracy    <          3.6E-12 Ry

     iteration # 14     ecut=    50.00 Ry     beta=0.60
     Davidson diagonalization with overlap
     ethr =  1.00E-13,  avg # of iterations =  1.0

     total cpu time spent up to now is        0.9 secs

     End of self-consistent calculation

          k = 0.2500 0.2500 0.2500 (  2425 PWs)   bands (ev):

   -44.8390 -21.1584 -21.1568 -21.1568 -13.0240  -5.5492  -4.9758  -4.9758
     1.3662   1.3662   2.1080   7.3631   8.0772   8.0772   8.6158   8.8180
     8.8180  10.4261  10.4842  10.4842  14.8456  14.8504  14.8504  17.9128

     highest occupied, lowest unoccupied level (ev):    10.4842   14.8456

!    total energy              =    -303.33996476 Ry
     Harris-Foulkes estimate   =    -303.33996476 Ry
     estimated scf accuracy    <          3.0E-13 Ry

     The total energy is the sum of the following terms:

     one-electron contribution =     -65.13572112 Ry
     hartree contribution      =      58.07972920 Ry
     xc contribution           =     -84.36931020 Ry
     ewald contribution        =    -211.91466263 Ry

     convergence has been achieved in  14 iterations

     Forces acting on atoms (cartesian axes, Ry/au):

     atom    1 type  3   force =     0.00000000    0.00000000   -0.00000000
     atom    2 type  2   force =     0.00000000    0.00000000    0.00000000
     atom    3 type  1   force =     0.00000000    0.00000000    0.00000000
     atom    4 type  1   force =     0.00000000    0.00000000    0.00000000
     atom    5 type  1   force =     0.00000000    0.00000000    0.00000000

     Total force =     0.000000     Total SCF correction =     0.000000


     Computing stress (Cartesian axis) and pressure

          total   stress  (Ry/bohr**3)                   (kbar)     P=   78.31
   0.00053231   0.00000000   0.00000000         78.31      0.00      0.00
   0.00000000   0.00053231   0.00000000          0.00     78.31      0.00
   0.00000000   0.00000000   0.00053231          0.00      0.00     78.31


     Writing output data file bto.save
 
     init_run     :      0.09s CPU      0.11s WALL (       1 calls)
     electrons    :      0.57s CPU      0.58s WALL (       1 calls)
     forces       :      0.03s CPU      0.03s WALL (       1 calls)
     stress       :      0.08s CPU      0.08s WALL (       1 calls)

     Called by init_run:
     wfcinit      :      0.01s CPU      0.01s WALL (       1 calls)
     potinit      :      0.01s CPU      0.01s WALL (       1 calls)

     Called by electrons:
     c_bands      :      0.14s CPU      0.17s WALL (      14 calls)
     sum_band     :      0.22s CPU      0.20s WALL (      14 calls)
     v_of_rho     :      0.02s CPU      0.03s WALL (      15 calls)
     newd         :      0.20s CPU      0.16s WALL (      15 calls)
     mix_rho      :      0.00s CPU      0.01s WALL (      14 calls)

     Called by c_bands:
     init_us_2    :      0.00s CPU      0.00s WALL (      29 calls)
     cegterg      :      0.14s CPU      0.17s WALL (      14 calls)

     Called by sum_band:
     sum_band:bec :      0.00s CPU      0.00s WALL (      14 calls)
     addusdens    :      0.18s CPU      0.17s WALL (      14 calls)

     Called by *egterg:
     h_psi        :      0.08s CPU      0.09s WALL (      56 calls)
     s_psi        :      0.00s CPU      0.00s WALL (      56 calls)
     g_psi        :      0.00s CPU      0.00s WALL (      41 calls)
     cdiaghg      :      0.05s CPU      0.06s WALL (      55 calls)

     Called by h_psi:
     h_psi:pot    :      0.08s CPU      0.09s WALL (      56 calls)
     h_psi:calbec :      0.00s CPU      0.01s WALL (      56 calls)
     vloc_psi     :      0.07s CPU      0.08s WALL (      56 calls)
     add_vuspsi   :      0.00s CPU      0.00s WALL (      56 calls)

     General routines
     calbec       :      0.00s CPU      0.01s WALL (      75 calls)
     fft          :      0.01s CPU      0.03s WALL (     261 calls)
     ffts         :      0.00s CPU      0.00s WALL (      29 calls)
     fftw         :      0.09s CPU      0.09s WALL (    2148 calls)
     interpolate  :      0.00s CPU      0.01s WALL (      29 calls)
     davcio       :      0.00s CPU      0.00s WALL (       1 calls)
 
     Parallel routines
     fft_scatter  :      0.04s CPU      0.07s WALL (    2438 calls)
 
     PWSCF        :     0.91s CPU         1.09s WALL

 
   This run was terminated on:  11: 9: 5  31Dec2017            

=------------------------------------------------------------------------------=
   JOB DONE.
=------------------------------------------------------------------------------=
