
     Program PWSCF v.6.1 (svn rev. 13369) starts on 13Jan2018 at 11:56:57 

     This program is part of the open-source Quantum ESPRESSO suite
     for quantum simulation of materials; please cite
         "P. Giannozzi et al., J. Phys.:Condens. Matter 21 395502 (2009);
          URL http://www.quantum-espresso.org", 
     in publications or presentations arising from this work. More details at
     http://www.quantum-espresso.org/quote

     Parallel version (MPI), running on    28 processors
     R & G space division:  proc/nbgrp/npool/nimage =      28
     Waiting for input...
     Reading input from standard input

     Current dimensions of program PWSCF are:
     Max number of different atomic species (ntypx) = 10
     Max number of k-points (npk) =  40000
     Max angular momentum in pseudopotentials (lmaxx) =  3
               file O.pbe-rrkjus.UPF: wavefunction(s)  2S renormalized

     Subspace diagonalization in iterative solution of the eigenvalue problem:
     a serial algorithm will be used

 
     Parallelization info
     --------------------
     sticks:   dense  smooth     PW     G-vecs:    dense   smooth      PW
     Min          63      31      9                 2051      723     115
     Max          64      32     10                 2058      730     118
     Sum        1789     885    261                57555    20341    3239
 

     Title: 
     cubic BaTiO3 scf xc=PBE with TI in middle                                  


     bravais-lattice index     =            1
     lattice parameter (alat)  =       7.5234  a.u.
     unit-cell volume          =     425.8418 (a.u.)^3
     number of atoms/cell      =            5
     number of atomic types    =            3
     number of electrons       =        40.00
     number of Kohn-Sham states=           24
     kinetic-energy cutoff     =      50.0000  Ry
     charge density cutoff     =     400.0000  Ry
     convergence threshold     =      1.0E-12
     mixing beta               =       0.6000
     number of iterations used =            8  plain     mixing
     Exchange-correlation      =  SLA  PW   PBE  PBE ( 1  4  3  4 0 0)

     celldm(1)=   7.523434  celldm(2)=   0.000000  celldm(3)=   0.000000
     celldm(4)=   0.000000  celldm(5)=   0.000000  celldm(6)=   0.000000

     crystal axes: (cart. coord. in units of alat)
               a(1) = (   1.000000   0.000000   0.000000 )  
               a(2) = (   0.000000   1.000000   0.000000 )  
               a(3) = (   0.000000   0.000000   1.000000 )  

     reciprocal axes: (cart. coord. in units 2 pi/alat)
               b(1) = (  1.000000  0.000000  0.000000 )  
               b(2) = (  0.000000  1.000000  0.000000 )  
               b(3) = (  0.000000  0.000000  1.000000 )  


     PseudoPot. # 1 for O  read from file:
     ../../PSP_DIR/O.pbe-rrkjus.UPF
     MD5 check sum: 390ba29e75625707450f3bd3f0eb6be9
     Pseudo is Ultrasoft, Zval =  6.0
     Generated by new atomic code, or converted to UPF format
     Using radial grid of 1269 points,  4 beta functions with: 
                l(1) =   0
                l(2) =   0
                l(3) =   1
                l(4) =   1
     Q(r) pseudized with 0 coefficients 


     PseudoPot. # 2 for Ti read from file:
     ../../PSP_DIR/Ti.pbe-sp-van_ak.UPF
     MD5 check sum: 8e4df49b7f0d34bbd5052bf3f5ea0213
     Pseudo is Ultrasoft, Zval = 12.0
     Generated by new atomic code, or converted to UPF format
     Using radial grid of  851 points,  6 beta functions with: 
                l(1) =   0
                l(2) =   0
                l(3) =   1
                l(4) =   1
                l(5) =   2
                l(6) =   2
     Q(r) pseudized with  8 coefficients,  rinner =    1.000   1.000   1.000
                                                       1.000   1.000

     PseudoPot. # 3 for Ba read from file:
     ../../PSP_DIR/Ba.pbe-nsp-van.UPF
     MD5 check sum: a011de417d3466d8e94df216395bc359
     Pseudo is Ultrasoft + core correction, Zval = 10.0
     Generated by new atomic code, or converted to UPF format
     Using radial grid of  907 points,  6 beta functions with: 
                l(1) =   0
                l(2) =   0
                l(3) =   1
                l(4) =   1
                l(5) =   2
                l(6) =   2
     Q(r) pseudized with  6 coefficients,  rinner =    1.200   1.200   1.200
                                                       1.200   1.200

     atomic species   valence    mass     pseudopotential
        O              6.00    15.99000     O ( 1.00)
        Ti            12.00    47.88000     Ti( 1.00)
        Ba            10.00   137.33000     Ba( 1.00)

     48 Sym. Ops., with inversion, found



   Cartesian axes

     site n.     atom                  positions (alat units)
         1           Ba  tau(   1) = (   0.0000000   0.0000000   0.0000000  )
         2           Ti  tau(   2) = (   0.5000000   0.5000000   0.5000000  )
         3           O   tau(   3) = (   0.0000000   0.5000000   0.5000000  )
         4           O   tau(   4) = (   0.5000000   0.0000000   0.5000000  )
         5           O   tau(   5) = (   0.5000000   0.5000000   0.0000000  )

     number of k points=    10
                       cart. coord. in units 2pi/alat
        k(    1) = (   0.0833333   0.0833333   0.0833333), wk =   0.0740741
        k(    2) = (   0.0833333   0.0833333   0.2500000), wk =   0.2222222
        k(    3) = (   0.0833333   0.0833333   0.4166667), wk =   0.2222222
        k(    4) = (   0.0833333   0.2500000   0.2500000), wk =   0.2222222
        k(    5) = (   0.0833333   0.2500000   0.4166667), wk =   0.4444444
        k(    6) = (   0.0833333   0.4166667   0.4166667), wk =   0.2222222
        k(    7) = (   0.2500000   0.2500000   0.2500000), wk =   0.0740741
        k(    8) = (   0.2500000   0.2500000   0.4166667), wk =   0.2222222
        k(    9) = (   0.2500000   0.4166667   0.4166667), wk =   0.2222222
        k(   10) = (   0.4166667   0.4166667   0.4166667), wk =   0.0740741

     Dense  grid:    57555 G-vectors     FFT dimensions: (  48,  48,  48)

     Smooth grid:    20341 G-vectors     FFT dimensions: (  36,  36,  36)

     Estimated max dynamical RAM per process >       2.21MB

     Estimated total allocated dynamical RAM >      61.75MB

     Initial potential from superposition of free atoms

     starting charge   38.98495, renormalised to   40.00000
     Starting wfc are   35 randomized atomic wfcs

     total cpu time spent up to now is        0.7 secs

     per-process dynamical memory:    35.2 Mb

     Self-consistent Calculation

     iteration #  1     ecut=    50.00 Ry     beta=0.60
     Davidson diagonalization with overlap
     ethr =  1.00E-02,  avg # of iterations =  2.5

     total cpu time spent up to now is        0.9 secs

     total energy              =    -302.89777669 Ry
     Harris-Foulkes estimate   =    -303.47978620 Ry
     estimated scf accuracy    <       0.81019350 Ry

     iteration #  2     ecut=    50.00 Ry     beta=0.60
     Davidson diagonalization with overlap
     ethr =  2.03E-03,  avg # of iterations =  4.0

     total cpu time spent up to now is        1.1 secs

     total energy              =    -302.16545736 Ry
     Harris-Foulkes estimate   =    -303.93678808 Ry
     estimated scf accuracy    <       7.32132571 Ry

     iteration #  3     ecut=    50.00 Ry     beta=0.60
     Davidson diagonalization with overlap
     ethr =  2.03E-03,  avg # of iterations =  3.4

     total cpu time spent up to now is        1.3 secs

     total energy              =    -303.31906602 Ry
     Harris-Foulkes estimate   =    -303.36704244 Ry
     estimated scf accuracy    <       0.19018245 Ry

     iteration #  4     ecut=    50.00 Ry     beta=0.60
     Davidson diagonalization with overlap
     ethr =  4.75E-04,  avg # of iterations =  1.0

     total cpu time spent up to now is        1.4 secs

     total energy              =    -303.30256088 Ry
     Harris-Foulkes estimate   =    -303.32766216 Ry
     estimated scf accuracy    <       0.07925162 Ry

     iteration #  5     ecut=    50.00 Ry     beta=0.60
     Davidson diagonalization with overlap
     ethr =  1.98E-04,  avg # of iterations =  3.1

     total cpu time spent up to now is        1.5 secs

     total energy              =    -303.31572110 Ry
     Harris-Foulkes estimate   =    -303.31587067 Ry
     estimated scf accuracy    <       0.00070652 Ry

     iteration #  6     ecut=    50.00 Ry     beta=0.60
     Davidson diagonalization with overlap
     ethr =  1.77E-06,  avg # of iterations =  4.4

     total cpu time spent up to now is        1.8 secs

     total energy              =    -303.31600732 Ry
     Harris-Foulkes estimate   =    -303.31615725 Ry
     estimated scf accuracy    <       0.00028505 Ry

     iteration #  7     ecut=    50.00 Ry     beta=0.60
     Davidson diagonalization with overlap
     ethr =  7.13E-07,  avg # of iterations =  3.5

     total cpu time spent up to now is        1.9 secs

     total energy              =    -303.31608523 Ry
     Harris-Foulkes estimate   =    -303.31610048 Ry
     estimated scf accuracy    <       0.00005248 Ry

     iteration #  8     ecut=    50.00 Ry     beta=0.60
     Davidson diagonalization with overlap
     ethr =  1.31E-07,  avg # of iterations =  1.6

     total cpu time spent up to now is        2.1 secs

     total energy              =    -303.31608695 Ry
     Harris-Foulkes estimate   =    -303.31608998 Ry
     estimated scf accuracy    <       0.00000644 Ry

     iteration #  9     ecut=    50.00 Ry     beta=0.60
     Davidson diagonalization with overlap
     ethr =  1.61E-08,  avg # of iterations =  3.9

     total cpu time spent up to now is        2.2 secs

     total energy              =    -303.31608928 Ry
     Harris-Foulkes estimate   =    -303.31608938 Ry
     estimated scf accuracy    <       0.00000056 Ry

     iteration # 10     ecut=    50.00 Ry     beta=0.60
     Davidson diagonalization with overlap
     ethr =  1.39E-09,  avg # of iterations =  1.8

     total cpu time spent up to now is        2.4 secs

     total energy              =    -303.31608928 Ry
     Harris-Foulkes estimate   =    -303.31608932 Ry
     estimated scf accuracy    <       0.00000015 Ry

     iteration # 11     ecut=    50.00 Ry     beta=0.60
     Davidson diagonalization with overlap
     ethr =  3.65E-10,  avg # of iterations =  2.5

     total cpu time spent up to now is        2.5 secs

     total energy              =    -303.31608931 Ry
     Harris-Foulkes estimate   =    -303.31608931 Ry
     estimated scf accuracy    <          7.7E-10 Ry

     iteration # 12     ecut=    50.00 Ry     beta=0.60
     Davidson diagonalization with overlap
     ethr =  1.93E-12,  avg # of iterations =  4.0

     total cpu time spent up to now is        2.7 secs

     total energy              =    -303.31608931 Ry
     Harris-Foulkes estimate   =    -303.31608931 Ry
     estimated scf accuracy    <          2.4E-09 Ry

     iteration # 13     ecut=    50.00 Ry     beta=0.60
     Davidson diagonalization with overlap
     ethr =  1.93E-12,  avg # of iterations =  3.7

     total cpu time spent up to now is        2.9 secs

     total energy              =    -303.31608931 Ry
     Harris-Foulkes estimate   =    -303.31608931 Ry
     estimated scf accuracy    <          3.7E-11 Ry

     iteration # 14     ecut=    50.00 Ry     beta=0.60
     Davidson diagonalization with overlap
     ethr =  1.00E-13,  avg # of iterations =  2.1

     total cpu time spent up to now is        3.1 secs

     total energy              =    -303.31608931 Ry
     Harris-Foulkes estimate   =    -303.31608931 Ry
     estimated scf accuracy    <          4.8E-12 Ry

     iteration # 15     ecut=    50.00 Ry     beta=0.60
     Davidson diagonalization with overlap
     ethr =  1.00E-13,  avg # of iterations =  1.0

     total cpu time spent up to now is        3.2 secs

     End of self-consistent calculation

          k = 0.0833 0.0833 0.0833 (  2538 PWs)   bands (ev):

   -46.0512 -22.2870 -22.2867 -22.2867 -14.0069  -6.3570  -5.6899  -5.6899
     0.7769   0.7769   0.9031   7.8909   8.0846   8.0846   8.9205   8.9205
     9.2858   9.8627  10.1670  10.1670  12.5414  12.5918  12.5918  14.8510

          k = 0.0833 0.0833 0.2500 (  2544 PWs)   bands (ev):

   -46.0507 -22.3110 -22.2859 -22.2857 -13.9525  -6.4026  -5.6758  -5.6076
     0.8255   0.8307   1.0754   7.2187   7.8562   7.9486   8.5052   8.5127
     9.2053   9.2338   9.8822   9.8894  12.6093  13.2921  13.2968  14.8500

          k = 0.0833 0.0833 0.4167 (  2538 PWs)   bands (ev):

   -46.0502 -22.3350 -22.2849 -22.2847 -13.8967  -6.5226  -5.6617  -5.4313
     0.8751   0.9767   1.1484   6.5231   7.6780   7.7548   7.9702   8.3112
     9.0325   9.1457   9.5456   9.6560  12.6485  13.9545  13.9614  14.8445

          k = 0.0833 0.2500 0.2500 (  2554 PWs)   bands (ev):

   -46.0502 -22.3101 -22.3093 -22.2849 -13.9066  -6.3093  -5.6550  -5.6080
     0.7374   0.8413   1.1673   6.9346   7.4267   7.7009   8.0192   8.3156
     8.8350   9.4599   9.5363   9.9692  13.2674  13.3918  13.6354  15.3373

          k = 0.0833 0.2500 0.4167 (  2541 PWs)   bands (ev):

   -46.0497 -22.3335 -22.3085 -22.2839 -13.8597  -6.3037  -5.6234  -5.5171
     0.7478   0.8934   1.1088   6.4475   7.1197   7.3057   7.7905   8.1534
     8.9128   9.2683   9.4421   9.9647  13.3619  13.9864  14.1207  15.4286

          k = 0.0833 0.4167 0.4167 (  2540 PWs)   bands (ev):

   -46.0493 -22.3321 -22.3319 -22.2830 -13.8219  -6.0708  -5.6163  -5.5758
     0.6919   0.7415   1.0932   6.2760   6.6906   6.6951   7.8398   7.8943
     8.6364   9.4824   9.6199  10.3135  13.9963  14.0281  14.4155  15.6090

          k = 0.2500 0.2500 0.2500 (  2542 PWs)   bands (ev):

   -46.0498 -22.3093 -22.3082 -22.3082 -13.8663  -6.1562  -5.6114  -5.6114
     0.6041   0.6041   1.2162   6.7411   7.3975   7.3975   7.9331   8.1474
     8.1474   9.7638   9.7638   9.7677  13.7105  13.7346  13.7346  16.5347

          k = 0.2500 0.2500 0.4167 (  2534 PWs)   bands (ev):

   -46.0493 -22.3321 -22.3077 -22.3072 -13.8252  -6.0766  -5.5666  -5.5317
     0.4706   0.6126   1.0011   6.4158   7.1058   7.3761   7.4303   8.0956
     8.2928   9.5704   9.8793   9.8920  13.8114  14.1894  14.2201  16.5027

          k = 0.2500 0.4167 0.4167 (  2527 PWs)   bands (ev):

   -46.0488 -22.3309 -22.3307 -22.3064 -13.7901  -5.8325  -5.5432  -5.5192
     0.3649   0.3933   0.6936   6.2646   6.6946   7.2869   7.4536   8.0566
     8.1258   9.8050   9.8953  10.2863  14.2850  14.2982  14.5124  16.8519

          k = 0.4167 0.4167 0.4167 (  2515 PWs)   bands (ev):

   -46.0483 -22.3297 -22.3295 -22.3295 -13.7579  -5.5740  -5.4658  -5.4658
     0.1104   0.1104   0.2631   6.1125   6.7006   6.7006   7.8932   8.1388
     8.1388  10.2228  10.2228  10.3006  14.6170  14.6170  14.6201  17.7040

     highest occupied, lowest unoccupied level (ev):    10.3135   12.5414

!    total energy              =    -303.31608931 Ry
     Harris-Foulkes estimate   =    -303.31608931 Ry
     estimated scf accuracy    <          4.4E-13 Ry

     The total energy is the sum of the following terms:

     one-electron contribution =     -69.85239944 Ry
     hartree contribution      =      59.15858812 Ry
     xc contribution           =     -84.18440575 Ry
     ewald contribution        =    -208.43787223 Ry

     convergence has been achieved in  15 iterations

     Forces acting on atoms (cartesian axes, Ry/au):

     atom    1 type  3   force =     0.00000000    0.00000000    0.00000000
     atom    2 type  2   force =     0.00000000    0.00000000    0.00000000
     atom    3 type  1   force =     0.00000000    0.00000000    0.00000000
     atom    4 type  1   force =     0.00000000    0.00000000   -0.00000000
     atom    5 type  1   force =     0.00000000    0.00000000    0.00000000

     Total force =     0.000000     Total SCF correction =     0.000000


     Computing stress (Cartesian axis) and pressure

          total   stress  (Ry/bohr**3)                   (kbar)     P=   -1.46
  -0.00000993   0.00000000   0.00000000         -1.46      0.00      0.00
   0.00000000  -0.00000993   0.00000000          0.00     -1.46      0.00
   0.00000000   0.00000000  -0.00000993          0.00      0.00     -1.46


     Writing output data file bto.save
 
     init_run     :      0.15s CPU      0.29s WALL (       1 calls)
     electrons    :      2.39s CPU      2.53s WALL (       1 calls)
     forces       :      0.05s CPU      0.06s WALL (       1 calls)
     stress       :      0.09s CPU      0.11s WALL (       1 calls)

     Called by init_run:
     wfcinit      :      0.05s CPU      0.07s WALL (       1 calls)
     potinit      :      0.02s CPU      0.04s WALL (       1 calls)

     Called by electrons:
     c_bands      :      1.76s CPU      1.83s WALL (      15 calls)
     sum_band     :      0.41s CPU      0.44s WALL (      15 calls)
     v_of_rho     :      0.04s CPU      0.05s WALL (      16 calls)
     newd         :      0.18s CPU      0.20s WALL (      16 calls)
     mix_rho      :      0.01s CPU      0.02s WALL (      15 calls)

     Called by c_bands:
     init_us_2    :      0.01s CPU      0.02s WALL (     330 calls)
     cegterg      :      1.67s CPU      1.74s WALL (     150 calls)

     Called by sum_band:
     sum_band:bec :      0.00s CPU      0.00s WALL (     150 calls)
     addusdens    :      0.19s CPU      0.20s WALL (      15 calls)

     Called by *egterg:
     h_psi        :      0.89s CPU      0.96s WALL (     585 calls)
     s_psi        :      0.03s CPU      0.02s WALL (     585 calls)
     g_psi        :      0.00s CPU      0.00s WALL (     425 calls)
     cdiaghg      :      0.57s CPU      0.58s WALL (     575 calls)

     Called by h_psi:
     h_psi:pot    :      0.89s CPU      0.95s WALL (     585 calls)
     h_psi:calbec :      0.05s CPU      0.06s WALL (     585 calls)
     vloc_psi     :      0.81s CPU      0.87s WALL (     585 calls)
     add_vuspsi   :      0.02s CPU      0.02s WALL (     585 calls)

     General routines
     calbec       :      0.09s CPU      0.08s WALL (     785 calls)
     fft          :      0.03s CPU      0.08s WALL (     277 calls)
     ffts         :      0.00s CPU      0.01s WALL (      31 calls)
     fftw         :      0.92s CPU      0.98s WALL (   22888 calls)
     interpolate  :      0.01s CPU      0.01s WALL (      31 calls)
     davcio       :      0.00s CPU      0.00s WALL (      10 calls)
 
     Parallel routines
     fft_scatter  :      0.55s CPU      0.59s WALL (   23196 calls)
 
     PWSCF        :     2.86s CPU         3.50s WALL

 
   This run was terminated on:  11:57: 0  13Jan2018            

=------------------------------------------------------------------------------=
   JOB DONE.
=------------------------------------------------------------------------------=
