
     Program PHONON v.6.1 (svn rev. 13369) starts on 13Jan2018 at 11:57: 2 

     This program is part of the open-source Quantum ESPRESSO suite
     for quantum simulation of materials; please cite
         "P. Giannozzi et al., J. Phys.:Condens. Matter 21 395502 (2009);
          URL http://www.quantum-espresso.org", 
     in publications or presentations arising from this work. More details at
     http://www.quantum-espresso.org/quote

     Parallel version (MPI), running on    28 processors
     R & G space division:  proc/nbgrp/npool/nimage =      28

     Reading data from directory:
     ./bto.save

   Info: using nr1, nr2, nr3 values from input

   Info: using nr1, nr2, nr3 values from input

     IMPORTANT: XC functional enforced from input :
     Exchange-correlation      =  SLA  PW   PBE  PBE ( 1  4  3  4 0 0)
     Any further DFT definition will be discarded
     Please, verify this is what you really want

               file O.pbe-rrkjus.UPF: wavefunction(s)  2S renormalized
 
     Parallelization info
     --------------------
     sticks:   dense  smooth     PW     G-vecs:    dense   smooth      PW
     Min          63      31      9                 2051      723     115
     Max          64      32     10                 2058      730     118
     Sum        1789     885    261                57555    20341    3239
 


     Dynamical matrices for ( 4, 4, 4)  uniform grid of q-points
     (  10q-points):
       N         xq(1)         xq(2)         xq(3) 
       1   0.000000000   0.000000000   0.000000000
       2   0.000000000   0.000000000   0.250000000
       3   0.000000000   0.000000000  -0.500000000
       4   0.000000000   0.250000000   0.250000000
       5   0.000000000   0.250000000  -0.500000000
       6   0.000000000  -0.500000000  -0.500000000
       7   0.250000000   0.250000000   0.250000000
       8   0.250000000   0.250000000  -0.500000000
       9   0.250000000  -0.500000000  -0.500000000
      10  -0.500000000  -0.500000000  -0.500000000

     Calculation of q =    0.0000000   0.0000000   0.0000000

                                                                                

     bravais-lattice index     =            1
     lattice parameter (alat)  =       7.5234  a.u.
     unit-cell volume          =     425.8418 (a.u.)^3
     number of atoms/cell      =            5
     number of atomic types    =            3
     kinetic-energy cut-off    =      50.0000  Ry
     charge density cut-off    =     400.0000  Ry
     convergence threshold     =      1.0E-12
     beta                      =       0.7000
     number of iterations used =            4
     Exchange-correlation      =  SLA  PW   PBE  PBE ( 1  4  3  4 0 0)


     celldm(1)=    7.52343  celldm(2)=    0.00000  celldm(3)=    0.00000
     celldm(4)=    0.00000  celldm(5)=    0.00000  celldm(6)=    0.00000

     crystal axes: (cart. coord. in units of alat)
               a(1) = (  1.0000  0.0000  0.0000 )  
               a(2) = (  0.0000  1.0000  0.0000 )  
               a(3) = (  0.0000  0.0000  1.0000 )  

     reciprocal axes: (cart. coord. in units 2 pi/alat)
               b(1) = (  1.0000  0.0000  0.0000 )  
               b(2) = (  0.0000  1.0000  0.0000 )  
               b(3) = (  0.0000  0.0000  1.0000 )  


     Atoms inside the unit cell: 

     Cartesian axes

     site n.  atom      mass           positions (alat units)
        1     Ba 137.3300   tau(    1) = (    0.00000    0.00000    0.00000  )
        2     Ti  47.8800   tau(    2) = (    0.50000    0.50000    0.50000  )
        3     O   15.9900   tau(    3) = (    0.00000    0.50000    0.50000  )
        4     O   15.9900   tau(    4) = (    0.50000    0.00000    0.50000  )
        5     O   15.9900   tau(    5) = (    0.50000    0.50000    0.00000  )

     Computing dynamical matrix for 
                    q = (   0.0000000   0.0000000   0.0000000 )
 
     49 Sym.Ops. (with q -> -q+G )


     G cutoff =  573.4987  (   2058 G-vectors)     FFT grid: ( 48, 48, 48)
     G cutoff =  286.7494  (    730 G-vectors)  smooth grid: ( 36, 36, 36)
     number of k points=    10

     PseudoPot. # 1 for O  read from file:
     ../../PSP_DIR/O.pbe-rrkjus.UPF
     MD5 check sum: 390ba29e75625707450f3bd3f0eb6be9
     Pseudo is Ultrasoft, Zval =  6.0
     Generated by new atomic code, or converted to UPF format
     Using radial grid of 1269 points,  4 beta functions with: 
                l(1) =   0
                l(2) =   0
                l(3) =   1
                l(4) =   1
     Q(r) pseudized with 0 coefficients 


     PseudoPot. # 2 for Ti read from file:
     ../../PSP_DIR/Ti.pbe-sp-van_ak.UPF
     MD5 check sum: 8e4df49b7f0d34bbd5052bf3f5ea0213
     Pseudo is Ultrasoft, Zval = 12.0
     Generated by new atomic code, or converted to UPF format
     Using radial grid of  851 points,  6 beta functions with: 
                l(1) =   0
                l(2) =   0
                l(3) =   1
                l(4) =   1
                l(5) =   2
                l(6) =   2
     Q(r) pseudized with  8 coefficients,  rinner =    1.000   1.000   1.000
                                                       1.000   1.000

     PseudoPot. # 3 for Ba read from file:
     ../../PSP_DIR/Ba.pbe-nsp-van.UPF
     MD5 check sum: a011de417d3466d8e94df216395bc359
     Pseudo is Ultrasoft + core correction, Zval = 10.0
     Generated by new atomic code, or converted to UPF format
     Using radial grid of  907 points,  6 beta functions with: 
                l(1) =   0
                l(2) =   0
                l(3) =   1
                l(4) =   1
                l(5) =   2
                l(6) =   2
     Q(r) pseudized with  6 coefficients,  rinner =    1.200   1.200   1.200
                                                       1.200   1.200

     Mode symmetry, O_h (m-3m)  point group:


     Electric field:
     Dielectric constant
     Born effective charges in two ways 


     Atomic displacements:
     There are   5 irreducible representations

     Representation     1      3 modes -T_1u G_15  G_4-  To be done

     Representation     2      3 modes -T_1u G_15  G_4-  To be done

     Representation     3      3 modes -T_1u G_15  G_4-  To be done

     Representation     4      3 modes -T_1u G_15  G_4-  To be done

     Representation     5      3 modes -T_2u G_25  G_5-  To be done



     Alpha used in Ewald sum =   2.8000
     PHONON       :     1.57s CPU         2.14s WALL


     Electric Fields Calculation

      iter #   1 total cpu time :     6.9 secs   av.it.:   9.6
      thresh= 1.000E-02 alpha_mix =  0.700 |ddv_scf|^2 =  2.410E-08

      iter #   2 total cpu time :     9.2 secs   av.it.:  18.7
      thresh= 1.552E-05 alpha_mix =  0.700 |ddv_scf|^2 =  3.634E-09

      iter #   3 total cpu time :    11.3 secs   av.it.:  17.4
      thresh= 6.028E-06 alpha_mix =  0.700 |ddv_scf|^2 =  2.298E-10

      iter #   4 total cpu time :    13.3 secs   av.it.:  18.1
      thresh= 1.516E-06 alpha_mix =  0.700 |ddv_scf|^2 =  1.360E-11

      iter #   5 total cpu time :    15.4 secs   av.it.:  18.1
      thresh= 3.687E-07 alpha_mix =  0.700 |ddv_scf|^2 =  4.273E-13

     End of electric fields calculation

          Dielectric constant in cartesian axis 

          (       6.516798459       0.000000000       0.000000000 )
          (       0.000000000       6.516798459       0.000000000 )
          (      -0.000000000       0.000000000       6.516798459 )

          Effective charges (d Force / dE) in cartesian axis

           atom      1   Ba 
      Ex  (        2.52960       -0.00000       -0.00000 )
      Ey  (        0.00000        2.52960       -0.00000 )
      Ez  (       -0.00000        0.00000        2.52960 )
           atom      2   Ti 
      Ex  (        7.32213        0.00000        0.00000 )
      Ey  (       -0.00000        7.32213        0.00000 )
      Ez  (        0.00000       -0.00000        7.32213 )
           atom      3   O  
      Ex  (       -5.75281        0.00000        0.00000 )
      Ey  (        0.00000       -2.14448        0.00000 )
      Ez  (       -0.00000       -0.00000       -2.14448 )
           atom      4   O  
      Ex  (       -2.14448        0.00000        0.00000 )
      Ey  (        0.00000       -5.75281       -0.00000 )
      Ez  (        0.00000        0.00000       -2.14448 )
           atom      5   O  
      Ex  (       -2.14448       -0.00000        0.00000 )
      Ey  (        0.00000       -2.14448       -0.00000 )
      Ez  (       -0.00000        0.00000       -5.75281 )


     Representation #  1 modes #   1  2  3

     Self-consistent Calculation

      iter #   1 total cpu time :    20.1 secs   av.it.:  10.1
      thresh= 1.000E-02 alpha_mix =  0.700 |ddv_scf|^2 =  1.091E-06

      iter #   2 total cpu time :    22.1 secs   av.it.:  18.4
      thresh= 1.044E-04 alpha_mix =  0.700 |ddv_scf|^2 =  2.966E-07

      iter #   3 total cpu time :    24.2 secs   av.it.:  17.9
      thresh= 5.447E-05 alpha_mix =  0.700 |ddv_scf|^2 =  7.623E-10

      iter #   4 total cpu time :    26.1 secs   av.it.:  18.8
      thresh= 2.761E-06 alpha_mix =  0.700 |ddv_scf|^2 =  3.612E-11

      iter #   5 total cpu time :    28.7 secs   av.it.:  17.5
      thresh= 6.010E-07 alpha_mix =  0.700 |ddv_scf|^2 =  3.398E-13

     End of self-consistent calculation

     Convergence has been achieved 


     Representation #  2 modes #   4  5  6

     Self-consistent Calculation

      iter #   1 total cpu time :    30.4 secs   av.it.:   7.8
      thresh= 1.000E-02 alpha_mix =  0.700 |ddv_scf|^2 =  1.581E-07

      iter #   2 total cpu time :    32.5 secs   av.it.:  18.1
      thresh= 3.976E-05 alpha_mix =  0.700 |ddv_scf|^2 =  3.312E-08

      iter #   3 total cpu time :    35.2 secs   av.it.:  18.0
      thresh= 1.820E-05 alpha_mix =  0.700 |ddv_scf|^2 =  3.047E-10

      iter #   4 total cpu time :    37.3 secs   av.it.:  18.2
      thresh= 1.746E-06 alpha_mix =  0.700 |ddv_scf|^2 =  1.440E-11

      iter #   5 total cpu time :    39.5 secs   av.it.:  18.3
      thresh= 3.794E-07 alpha_mix =  0.700 |ddv_scf|^2 =  2.993E-13

     End of self-consistent calculation

     Convergence has been achieved 


     Representation #  3 modes #   7  8  9

     Self-consistent Calculation

      iter #   1 total cpu time :    41.4 secs   av.it.:   9.2
      thresh= 1.000E-02 alpha_mix =  0.700 |ddv_scf|^2 =  4.992E-07

      iter #   2 total cpu time :    43.6 secs   av.it.:  18.6
      thresh= 7.065E-05 alpha_mix =  0.700 |ddv_scf|^2 =  1.076E-07

      iter #   3 total cpu time :    47.3 secs   av.it.:  18.1
      thresh= 3.281E-05 alpha_mix =  0.700 |ddv_scf|^2 =  3.596E-10

      iter #   4 total cpu time :    49.7 secs   av.it.:  18.1
      thresh= 1.896E-06 alpha_mix =  0.700 |ddv_scf|^2 =  4.495E-12

      iter #   5 total cpu time :    52.0 secs   av.it.:  18.3
      thresh= 2.120E-07 alpha_mix =  0.700 |ddv_scf|^2 =  2.920E-13

     End of self-consistent calculation

     Convergence has been achieved 


     Representation #  4 modes #  10 11 12

     Self-consistent Calculation

      iter #   1 total cpu time :    53.9 secs   av.it.:   8.7
      thresh= 1.000E-02 alpha_mix =  0.700 |ddv_scf|^2 =  2.150E-07

      iter #   2 total cpu time :    56.8 secs   av.it.:  18.4
      thresh= 4.637E-05 alpha_mix =  0.700 |ddv_scf|^2 =  2.801E-08

      iter #   3 total cpu time :    59.8 secs   av.it.:  18.0
      thresh= 1.674E-05 alpha_mix =  0.700 |ddv_scf|^2 =  5.550E-10

      iter #   4 total cpu time :    62.2 secs   av.it.:  18.1
      thresh= 2.356E-06 alpha_mix =  0.700 |ddv_scf|^2 =  6.199E-12

      iter #   5 total cpu time :    65.2 secs   av.it.:  18.2
      thresh= 2.490E-07 alpha_mix =  0.700 |ddv_scf|^2 =  4.454E-13

     End of self-consistent calculation

     Convergence has been achieved 


     Representation #  5 modes #  13 14 15

     Self-consistent Calculation

      iter #   1 total cpu time :    67.4 secs   av.it.:   8.3
      thresh= 1.000E-02 alpha_mix =  0.700 |ddv_scf|^2 =  1.355E-07

      iter #   2 total cpu time :    69.5 secs   av.it.:  18.0
      thresh= 3.681E-05 alpha_mix =  0.700 |ddv_scf|^2 =  6.890E-10

      iter #   3 total cpu time :    71.8 secs   av.it.:  17.9
      thresh= 2.625E-06 alpha_mix =  0.700 |ddv_scf|^2 =  1.225E-11

      iter #   4 total cpu time :    74.0 secs   av.it.:  15.9
      thresh= 3.500E-07 alpha_mix =  0.700 |ddv_scf|^2 =  1.458E-14

     End of self-consistent calculation

     Convergence has been achieved 
 
     Number of q in the star =    1
     List of q in the star:
          1   0.000000000   0.000000000   0.000000000

          Dielectric constant in cartesian axis 

          (       6.516798459       0.000000000       0.000000000 )
          (       0.000000000       6.516798459       0.000000000 )
          (      -0.000000000       0.000000000       6.516798459 )

          Effective charges (d Force / dE) in cartesian axis

           atom      1   Ba 
      Ex  (        2.52960       -0.00000       -0.00000 )
      Ey  (        0.00000        2.52960       -0.00000 )
      Ez  (       -0.00000        0.00000        2.52960 )
           atom      2   Ti 
      Ex  (        7.32213        0.00000        0.00000 )
      Ey  (       -0.00000        7.32213        0.00000 )
      Ez  (        0.00000       -0.00000        7.32213 )
           atom      3   O  
      Ex  (       -5.75281        0.00000        0.00000 )
      Ey  (        0.00000       -2.14448        0.00000 )
      Ez  (       -0.00000       -0.00000       -2.14448 )
           atom      4   O  
      Ex  (       -2.14448        0.00000        0.00000 )
      Ey  (        0.00000       -5.75281       -0.00000 )
      Ez  (        0.00000        0.00000       -2.14448 )
           atom      5   O  
      Ex  (       -2.14448       -0.00000        0.00000 )
      Ey  (        0.00000       -2.14448       -0.00000 )
      Ez  (       -0.00000        0.00000       -5.75281 )

          Effective charges (d P / du) in cartesian axis 

           atom      1   Ba 
      Px  (        2.77445       -0.00000        0.00000 )
      Py  (       -0.00000        2.77445        0.00000 )
      Pz  (       -0.00000       -0.00000        2.77445 )
           atom      2   Ti 
      Px  (        7.28818        0.00000        0.00000 )
      Py  (       -0.00000        7.28818       -0.00000 )
      Pz  (        0.00000        0.00000        7.28818 )
           atom      3   O  
      Px  (       -5.74890        0.00000        0.00000 )
      Py  (       -0.00000       -2.15049       -0.00000 )
      Pz  (        0.00000        0.00000       -2.15049 )
           atom      4   O  
      Px  (       -2.15049        0.00000        0.00000 )
      Py  (       -0.00000       -5.74890        0.00000 )
      Pz  (       -0.00000       -0.00000       -2.15049 )
           atom      5   O  
      Px  (       -2.15049        0.00000       -0.00000 )
      Py  (       -0.00000       -2.15049        0.00000 )
      Pz  (       -0.00000       -0.00000       -5.74890 )

     Diagonalizing the dynamical matrix

     q = (    0.000000000   0.000000000   0.000000000 ) 

 **************************************************************************
     freq (    1) =      -4.173841 [THz] =    -139.224354 [cm-1]
     freq (    2) =      -4.173841 [THz] =    -139.224354 [cm-1]
     freq (    3) =      -4.173841 [THz] =    -139.224354 [cm-1]
     freq (    4) =       1.912495 [THz] =      63.793954 [cm-1]
     freq (    5) =       1.912495 [THz] =      63.793954 [cm-1]
     freq (    6) =       1.912495 [THz] =      63.793954 [cm-1]
     freq (    7) =       4.718313 [THz] =     157.385994 [cm-1]
     freq (    8) =       4.718313 [THz] =     157.385994 [cm-1]
     freq (    9) =       4.718313 [THz] =     157.385994 [cm-1]
     freq (   10) =       8.782222 [THz] =     292.943386 [cm-1]
     freq (   11) =       8.782222 [THz] =     292.943386 [cm-1]
     freq (   12) =       8.782222 [THz] =     292.943386 [cm-1]
     freq (   13) =      14.659479 [THz] =     488.987576 [cm-1]
     freq (   14) =      14.659479 [THz] =     488.987576 [cm-1]
     freq (   15) =      14.659479 [THz] =     488.987576 [cm-1]
 **************************************************************************

     Mode symmetry, O_h (m-3m)  point group:

     freq (  1 -  3) =       -139.2  [cm-1]   --> T_1u G_15  G_4- I  
     freq (  4 -  6) =         63.8  [cm-1]   --> T_1u G_15  G_4- I  
     freq (  7 -  9) =        157.4  [cm-1]   --> T_1u G_15  G_4- I  
     freq ( 10 - 12) =        292.9  [cm-1]   --> T_2u G_25  G_5-    
     freq ( 13 - 15) =        489.0  [cm-1]   --> T_1u G_15  G_4- I  

     Calculation of q =    0.0000000   0.0000000   0.2500000

   Info: using nr1, nr2, nr3 values from input

   Info: using nr1, nr2, nr3 values from input
 
     Parallelization info
     --------------------
     sticks:   dense  smooth     PW     G-vecs:    dense   smooth      PW
     Min          63      31      9                 2051      723     119
     Max          64      32     10                 2058      730     122
     Sum        1789     885    277                57555    20341    3407
 


     bravais-lattice index     =            1
     lattice parameter (alat)  =       7.5234  a.u.
     unit-cell volume          =     425.8418 (a.u.)^3
     number of atoms/cell      =            5
     number of atomic types    =            3
     number of electrons       =        40.00
     number of Kohn-Sham states=           24
     kinetic-energy cutoff     =      50.0000  Ry
     charge density cutoff     =     400.0000  Ry
     Exchange-correlation      =  SLA  PW   PBE  PBE ( 1  4  3  4 0 0)

     celldm(1)=   7.523434  celldm(2)=   0.000000  celldm(3)=   0.000000
     celldm(4)=   0.000000  celldm(5)=   0.000000  celldm(6)=   0.000000

     crystal axes: (cart. coord. in units of alat)
               a(1) = (   1.000000   0.000000   0.000000 )  
               a(2) = (   0.000000   1.000000   0.000000 )  
               a(3) = (   0.000000   0.000000   1.000000 )  

     reciprocal axes: (cart. coord. in units 2 pi/alat)
               b(1) = (  1.000000  0.000000  0.000000 )  
               b(2) = (  0.000000  1.000000  0.000000 )  
               b(3) = (  0.000000  0.000000  1.000000 )  


     PseudoPot. # 1 for O  read from file:
     ../../PSP_DIR/O.pbe-rrkjus.UPF
     MD5 check sum: 390ba29e75625707450f3bd3f0eb6be9
     Pseudo is Ultrasoft, Zval =  6.0
     Generated by new atomic code, or converted to UPF format
     Using radial grid of 1269 points,  4 beta functions with: 
                l(1) =   0
                l(2) =   0
                l(3) =   1
                l(4) =   1
     Q(r) pseudized with 0 coefficients 


     PseudoPot. # 2 for Ti read from file:
     ../../PSP_DIR/Ti.pbe-sp-van_ak.UPF
     MD5 check sum: 8e4df49b7f0d34bbd5052bf3f5ea0213
     Pseudo is Ultrasoft, Zval = 12.0
     Generated by new atomic code, or converted to UPF format
     Using radial grid of  851 points,  6 beta functions with: 
                l(1) =   0
                l(2) =   0
                l(3) =   1
                l(4) =   1
                l(5) =   2
                l(6) =   2
     Q(r) pseudized with  8 coefficients,  rinner =    1.000   1.000   1.000
                                                       1.000   1.000

     PseudoPot. # 3 for Ba read from file:
     ../../PSP_DIR/Ba.pbe-nsp-van.UPF
     MD5 check sum: a011de417d3466d8e94df216395bc359
     Pseudo is Ultrasoft + core correction, Zval = 10.0
     Generated by new atomic code, or converted to UPF format
     Using radial grid of  907 points,  6 beta functions with: 
                l(1) =   0
                l(2) =   0
                l(3) =   1
                l(4) =   1
                l(5) =   2
                l(6) =   2
     Q(r) pseudized with  6 coefficients,  rinner =    1.200   1.200   1.200
                                                       1.200   1.200

     atomic species   valence    mass     pseudopotential
        O              6.00    15.99000     O ( 1.00)
        Ti            12.00    47.88000     Ti( 1.00)
        Ba            10.00   137.33000     Ba( 1.00)

     48 Sym. Ops., with inversion, found



   Cartesian axes

     site n.     atom                  positions (alat units)
         1           Ba  tau(   1) = (   0.0000000   0.0000000   0.0000000  )
         2           Ti  tau(   2) = (   0.5000000   0.5000000   0.5000000  )
         3           O   tau(   3) = (   0.0000000   0.5000000   0.5000000  )
         4           O   tau(   4) = (   0.5000000   0.0000000   0.5000000  )
         5           O   tau(   5) = (   0.5000000   0.5000000   0.0000000  )

     number of k points=    72
                       cart. coord. in units 2pi/alat
        k(    1) = (   0.0833333   0.0833333   0.0833333), wk =   0.0370370
        k(    2) = (   0.0833333   0.0833333   0.3333333), wk =   0.0000000
        k(    3) = (   0.0833333   0.0833333   0.2500000), wk =   0.0370370
        k(    4) = (   0.0833333   0.0833333   0.5000000), wk =   0.0000000
        k(    5) = (   0.0833333   0.0833333   0.4166667), wk =   0.0370370
        k(    6) = (   0.0833333   0.0833333   0.6666667), wk =   0.0000000
        k(    7) = (   0.0833333   0.2500000   0.2500000), wk =   0.0740741
        k(    8) = (   0.0833333   0.2500000   0.5000000), wk =   0.0000000
        k(    9) = (   0.0833333   0.2500000   0.4166667), wk =   0.0740741
        k(   10) = (   0.0833333   0.2500000   0.6666667), wk =   0.0000000
        k(   11) = (   0.0833333   0.4166667   0.4166667), wk =   0.0740741
        k(   12) = (   0.0833333   0.4166667   0.6666667), wk =   0.0000000
        k(   13) = (   0.2500000   0.2500000   0.2500000), wk =   0.0370370
        k(   14) = (   0.2500000   0.2500000   0.5000000), wk =   0.0000000
        k(   15) = (   0.2500000   0.2500000   0.4166667), wk =   0.0370370
        k(   16) = (   0.2500000   0.2500000   0.6666667), wk =   0.0000000
        k(   17) = (   0.2500000   0.4166667   0.4166667), wk =   0.0740741
        k(   18) = (   0.2500000   0.4166667   0.6666667), wk =   0.0000000
        k(   19) = (   0.4166667   0.4166667   0.4166667), wk =   0.0370370
        k(   20) = (   0.4166667   0.4166667   0.6666667), wk =   0.0000000
        k(   21) = (   0.0833333   0.0833333  -0.0833333), wk =   0.0370370
        k(   22) = (   0.0833333   0.0833333   0.1666667), wk =   0.0000000
        k(   23) = (   0.0833333   0.2500000   0.0833333), wk =   0.0740741
        k(   24) = (   0.0833333   0.2500000   0.3333333), wk =   0.0000000
        k(   25) = (   0.0833333   0.0833333  -0.2500000), wk =   0.0370370
        k(   26) = (   0.0833333   0.0833333   0.0000000), wk =   0.0000000
        k(   27) = (  -0.0833333  -0.2500000  -0.0833333), wk =   0.0740741
        k(   28) = (  -0.0833333  -0.2500000   0.1666667), wk =   0.0000000
        k(   29) = (   0.0833333   0.4166667   0.0833333), wk =   0.0740741
        k(   30) = (   0.0833333   0.4166667   0.3333333), wk =   0.0000000
        k(   31) = (   0.0833333   0.0833333  -0.4166667), wk =   0.0370370
        k(   32) = (   0.0833333   0.0833333  -0.1666667), wk =   0.0000000
        k(   33) = (  -0.0833333  -0.4166667  -0.0833333), wk =   0.0740741
        k(   34) = (  -0.0833333  -0.4166667   0.1666667), wk =   0.0000000
        k(   35) = (   0.2500000   0.0833333  -0.2500000), wk =   0.0740741
        k(   36) = (   0.2500000   0.0833333   0.0000000), wk =   0.0000000
        k(   37) = (   0.2500000   0.2500000   0.0833333), wk =   0.0370370
        k(   38) = (   0.2500000   0.2500000   0.3333333), wk =   0.0000000
        k(   39) = (  -0.2500000   0.2500000  -0.0833333), wk =   0.0370370
        k(   40) = (  -0.2500000   0.2500000   0.1666667), wk =   0.0000000
        k(   41) = (   0.0833333   0.4166667   0.2500000), wk =   0.0740741
        k(   42) = (   0.0833333   0.4166667   0.5000000), wk =   0.0000000
        k(   43) = (   0.2500000   0.0833333  -0.4166667), wk =   0.0740741
        k(   44) = (   0.2500000   0.0833333  -0.1666667), wk =   0.0000000
        k(   45) = (  -0.0833333  -0.4166667  -0.2500000), wk =   0.0740741
        k(   46) = (  -0.0833333  -0.4166667   0.0000000), wk =   0.0000000
        k(   47) = (   0.4166667   0.2500000   0.0833333), wk =   0.0740741
        k(   48) = (   0.4166667   0.2500000   0.3333333), wk =   0.0000000
        k(   49) = (  -0.2500000   0.4166667  -0.0833333), wk =   0.0740741
        k(   50) = (  -0.2500000   0.4166667   0.1666667), wk =   0.0000000
        k(   51) = (   0.4166667   0.0833333  -0.4166667), wk =   0.0740741
        k(   52) = (   0.4166667   0.0833333  -0.1666667), wk =   0.0000000
        k(   53) = (   0.4166667   0.4166667   0.0833333), wk =   0.0370370
        k(   54) = (   0.4166667   0.4166667   0.3333333), wk =   0.0000000
        k(   55) = (  -0.4166667   0.4166667  -0.0833333), wk =   0.0370370
        k(   56) = (  -0.4166667   0.4166667   0.1666667), wk =   0.0000000
        k(   57) = (   0.2500000   0.2500000  -0.2500000), wk =   0.0370370
        k(   58) = (   0.2500000   0.2500000   0.0000000), wk =   0.0000000
        k(   59) = (   0.2500000   0.4166667   0.2500000), wk =   0.0740741
        k(   60) = (   0.2500000   0.4166667   0.5000000), wk =   0.0000000
        k(   61) = (   0.2500000   0.2500000  -0.4166667), wk =   0.0370370
        k(   62) = (   0.2500000   0.2500000  -0.1666667), wk =   0.0000000
        k(   63) = (  -0.2500000  -0.4166667  -0.2500000), wk =   0.0740741
        k(   64) = (  -0.2500000  -0.4166667   0.0000000), wk =   0.0000000
        k(   65) = (   0.4166667   0.2500000  -0.4166667), wk =   0.0740741
        k(   66) = (   0.4166667   0.2500000  -0.1666667), wk =   0.0000000
        k(   67) = (   0.4166667   0.4166667   0.2500000), wk =   0.0370370
        k(   68) = (   0.4166667   0.4166667   0.5000000), wk =   0.0000000
        k(   69) = (  -0.4166667   0.4166667  -0.2500000), wk =   0.0370370
        k(   70) = (  -0.4166667   0.4166667   0.0000000), wk =   0.0000000
        k(   71) = (   0.4166667   0.4166667  -0.4166667), wk =   0.0370370
        k(   72) = (   0.4166667   0.4166667  -0.1666667), wk =   0.0000000

     Dense  grid:    57555 G-vectors     FFT dimensions: (  48,  48,  48)

     Smooth grid:    20341 G-vectors     FFT dimensions: (  36,  36,  36)

     Estimated max dynamical RAM per process >       1.98MB

     Estimated total allocated dynamical RAM >      55.33MB

     The potential is recalculated from file :
     ./_ph0/bto.save/charge-density.dat

     Starting wfc are   35 atomic wfcs

     Band Structure Calculation
     Davidson diagonalization with overlap

     ethr =  2.50E-11,  avg # of iterations = 18.4

     total cpu time spent up to now is        5.8 secs

     End of band structure calculation

          k = 0.0833 0.0833 0.0833 (  2538 PWs)   bands (ev):

   -46.0512 -22.2870 -22.2867 -22.2867 -14.0069  -6.3570  -5.6899  -5.6899
     0.7769   0.7769   0.9031   7.8909   8.0846   8.0846   8.9205   8.9205
     9.2858   9.8627  10.1670  10.1670  12.5414  12.5918  12.5918  14.8510

          k = 0.0833 0.0833 0.3333 (  2547 PWs)   bands (ev):

   -46.0504 -22.3248 -22.2853 -22.2851 -13.9205  -6.4664  -5.6677  -5.5139
     0.8540   0.9026   1.1309   6.8172   7.7372   7.8403   8.2172   8.3812
     9.1060   9.1309   9.7069   9.7512  12.6320  13.6763  13.6851  14.8478

          k = 0.0833 0.0833 0.2500 (  2544 PWs)   bands (ev):

   -46.0507 -22.3110 -22.2859 -22.2857 -13.9525  -6.4026  -5.6758  -5.6076
     0.8255   0.8307   1.0754   7.2187   7.8562   7.9486   8.5052   8.5127
     9.2053   9.2338   9.8822   9.8894  12.6093  13.2921  13.2968  14.8500

          k = 0.0833 0.0833 0.5000 (  2540 PWs)   bands (ev):

   -46.0501 -22.3386 -22.2847 -22.2846 -13.8879  -6.5446  -5.6595  -5.3987
     0.8829   1.0132   1.1451   6.4157   7.6777   7.7232   7.8605   8.2876
     9.0064   9.1781   9.4664   9.6221  12.6545  14.0564  14.0616  14.8425

          k = 0.0833 0.0833 0.4167 (  2538 PWs)   bands (ev):

   -46.0502 -22.3350 -22.2849 -22.2847 -13.8967  -6.5226  -5.6617  -5.4313
     0.8751   0.9767   1.1484   6.5231   7.6780   7.7548   7.9702   8.3112
     9.0324   9.1457   9.5456   9.6560  12.6485  13.9545  13.9614  14.8445

          k = 0.0833 0.0833 0.6667 (  2547 PWs)   bands (ev):

   -46.0504 -22.3248 -22.2853 -22.2851 -13.9205  -6.4664  -5.6677  -5.5139
     0.8540   0.9026   1.1309   6.8172   7.7372   7.8403   8.2172   8.3812
     9.1060   9.1309   9.7069   9.7512  12.6320  13.6763  13.6851  14.8478

          k = 0.0833 0.2500 0.2500 (  2554 PWs)   bands (ev):

   -46.0502 -22.3101 -22.3093 -22.2849 -13.9066  -6.3093  -5.6550  -5.6080
     0.7375   0.8413   1.1673   6.9346   7.4267   7.7009   8.0192   8.3156
     8.8350   9.4599   9.5363   9.9692  13.2673  13.3918  13.6354  15.3373

          k = 0.0833 0.2500 0.5000 (  2548 PWs)   bands (ev):

   -46.0497 -22.3371 -22.3083 -22.2838 -13.8523  -6.3103  -5.6174  -5.4953
     0.7524   0.9192   1.0782   6.3519   7.0817   7.2617   7.7469   8.1433
     8.9483   9.2457   9.4108   9.9504  13.3685  14.0848  14.2068  15.4334

          k = 0.0833 0.2500 0.4167 (  2541 PWs)   bands (ev):

   -46.0498 -22.3335 -22.3085 -22.2839 -13.8597  -6.3037  -5.6234  -5.5171
     0.7478   0.8935   1.1088   6.4475   7.1197   7.3057   7.7905   8.1534
     8.9128   9.2683   9.4421   9.9647  13.3619  13.9864  14.1207  15.4286

          k = 0.0833 0.2500 0.6667 (  2552 PWs)   bands (ev):

   -46.0500 -22.3235 -22.3090 -22.2843 -13.8796  -6.2951  -5.6393  -5.5659
     0.7372   0.8594   1.1528   6.6843   7.2356   7.4508   7.8985   8.1998
     8.8414   9.3682   9.4779   9.9854  13.3417  13.7190  13.9001  15.4057

          k = 0.0833 0.4167 0.4167 (  2540 PWs)   bands (ev):

   -46.0493 -22.3321 -22.3319 -22.2830 -13.8219  -6.0708  -5.6163  -5.5758
     0.6919   0.7415   1.0932   6.2760   6.6906   6.6951   7.8398   7.8943
     8.6364   9.4824   9.6199  10.3135  13.9963  14.0281  14.4155  15.6090

          k = 0.0833 0.4167 0.6667 (  2549 PWs)   bands (ev):

   -46.0495 -22.3326 -22.3221 -22.2834 -13.8379  -6.1705  -5.6162  -5.5542
     0.7087   0.8080   1.1011   6.3842   6.8517   6.9239   7.8196   8.0064
     8.7681   9.3406   9.5491  10.1913  13.7385  14.0036  14.2731  15.5584

          k = 0.2500 0.2500 0.2500 (  2542 PWs)   bands (ev):

   -46.0498 -22.3093 -22.3082 -22.3082 -13.8663  -6.1562  -5.6114  -5.6114
     0.6041   0.6041   1.2162   6.7411   7.3975   7.3975   7.9331   8.1474
     8.1474   9.7638   9.7638   9.7677  13.7105  13.7346  13.7346  16.5347

          k = 0.2500 0.2500 0.5000 (  2534 PWs)   bands (ev):

   -46.0492 -22.3357 -22.3075 -22.3070 -13.8187  -6.0728  -5.5595  -5.5098
     0.4500   0.6483   0.9325   6.3211   7.1877   7.2749   7.3738   8.0935
     8.3340   9.5409   9.8816   9.9001  13.8241  14.2719  14.3019  16.4955

          k = 0.2500 0.2500 0.4167 (  2534 PWs)   bands (ev):

   -46.0493 -22.3321 -22.3077 -22.3072 -13.8252  -6.0766  -5.5666  -5.5317
     0.4706   0.6126   1.0011   6.4158   7.1058   7.3761   7.4303   8.0956
     8.2928   9.5704   9.8793   9.8920  13.8114  14.1894  14.2201  16.5027

          k = 0.2500 0.2500 0.6667 (  2533 PWs)   bands (ev):

   -46.0495 -22.3222 -22.3082 -22.3076 -13.8427  -6.0986  -5.5857  -5.5784
     0.5271   0.5787   1.1238   6.6129   7.1474   7.3838   7.6628   8.1087
     8.2001   9.6514   9.8507   9.8558  13.7757  13.9815  14.0032  16.5189

          k = 0.2500 0.4167 0.4167 (  2527 PWs)   bands (ev):

   -46.0488 -22.3309 -22.3307 -22.3064 -13.7901  -5.8325  -5.5432  -5.5192
     0.3649   0.3933   0.6936   6.2646   6.6946   7.2869   7.4536   8.0566
     8.1257   9.8050   9.8953  10.2863  14.2849  14.2982  14.5124  16.8519

          k = 0.2500 0.4167 0.6667 (  2537 PWs)   bands (ev):

   -46.0490 -22.3313 -22.3209 -22.3068 -13.8050  -5.9378  -5.5490  -5.5278
     0.3880   0.4783   0.8485   6.3747   6.9007   7.2351   7.4544   8.0811
     8.1804   9.6998   9.8783  10.1350  14.0826  14.2541  14.3697  16.7927

          k = 0.4167 0.4167 0.4167 (  2515 PWs)   bands (ev):

   -46.0484 -22.3297 -22.3295 -22.3295 -13.7579  -5.5740  -5.4658  -5.4658
     0.1104   0.1104   0.2631   6.1125   6.7006   6.7006   7.8932   8.1388
     8.1388  10.2228  10.2228  10.3006  14.6170  14.6170  14.6201  17.7040

          k = 0.4167 0.4167 0.6667 (  2525 PWs)   bands (ev):

   -46.0485 -22.3302 -22.3300 -22.3198 -13.7716  -5.6868  -5.4990  -5.4870
     0.1977   0.2284   0.4560   6.2169   6.6979   6.9507   7.6654   8.1120
     8.1316  10.0380  10.0902  10.2783  14.4703  14.4732  14.5723  17.4342

          k = 0.0833 0.0833-0.0833 (  2538 PWs)   bands (ev):

   -46.0512 -22.2870 -22.2867 -22.2867 -14.0069  -6.3570  -5.6899  -5.6899
     0.7769   0.7769   0.9031   7.8909   8.0846   8.0846   8.9205   8.9205
     9.2858   9.8627  10.1670  10.1670  12.5414  12.5918  12.5918  14.8510

          k = 0.0833 0.0833 0.1667 (  2542 PWs)   bands (ev):

   -46.0510 -22.2970 -22.2865 -22.2863 -13.9841  -6.3634  -5.6840  -5.6703
     0.7846   0.7973   0.9917   7.6162   7.9828   8.0363   8.6943   8.7611
     9.2836   9.5179  10.0403  10.0418  12.5855  12.8873  12.8957  14.8509

          k = 0.0833 0.2500 0.0833 (  2544 PWs)   bands (ev):

   -46.0507 -22.3110 -22.2859 -22.2857 -13.9525  -6.4026  -5.6758  -5.6076
     0.8255   0.8307   1.0754   7.2187   7.8562   7.9486   8.5052   8.5127
     9.2053   9.2338   9.8822   9.8894  12.6093  13.2921  13.2968  14.8500

          k = 0.0833 0.2500 0.3333 (  2552 PWs)   bands (ev):

   -46.0500 -22.3235 -22.3090 -22.2843 -13.8796  -6.2951  -5.6393  -5.5659
     0.7372   0.8594   1.1528   6.6843   7.2356   7.4508   7.8985   8.1998
     8.8414   9.3682   9.4779   9.9854  13.3417  13.7190  13.9001  15.4057

          k = 0.0833 0.0833-0.2500 (  2544 PWs)   bands (ev):

   -46.0507 -22.3110 -22.2859 -22.2857 -13.9525  -6.4026  -5.6758  -5.6076
     0.8255   0.8307   1.0754   7.2187   7.8562   7.9486   8.5052   8.5127
     9.2053   9.2338   9.8822   9.8894  12.6093  13.2921  13.2968  14.8500

          k = 0.0833 0.0833 0.0000 (  2536 PWs)   bands (ev):

   -46.0512 -22.2871 -22.2868 -22.2830 -14.0152  -6.3600  -5.6921  -5.6909
     0.7694   0.7940   0.8504   7.9721   8.0992   8.1404   8.9771   9.0691
     9.2277  10.0125  10.2170  10.2291  12.4341  12.4764  12.5692  14.6375

          k =-0.0833-0.2500-0.0833 (  2544 PWs)   bands (ev):

   -46.0507 -22.3110 -22.2859 -22.2857 -13.9525  -6.4026  -5.6758  -5.6076
     0.8255   0.8307   1.0754   7.2187   7.8562   7.9486   8.5052   8.5127
     9.2053   9.2338   9.8822   9.8894  12.6093  13.2921  13.2968  14.8500

          k =-0.0833-0.2500 0.1667 (  2551 PWs)   bands (ev):

   -46.0505 -22.3105 -22.2959 -22.2854 -13.9333  -6.3541  -5.6644  -5.6211
     0.7677   0.8327   1.1387   7.1128   7.6624   7.8888   8.2172   8.4469
     9.0006   9.3733   9.7267   9.9061  12.9201  13.3164  13.4180  15.1564

          k = 0.0833 0.4167 0.0833 (  2538 PWs)   bands (ev):

   -46.0502 -22.3350 -22.2849 -22.2847 -13.8967  -6.5226  -5.6617  -5.4313
     0.8751   0.9767   1.1484   6.5231   7.6780   7.7548   7.9702   8.3112
     9.0324   9.1457   9.5456   9.6560  12.6485  13.9545  13.9614  14.8445

          k = 0.0833 0.4167 0.3333 (  2549 PWs)   bands (ev):

   -46.0495 -22.3326 -22.3221 -22.2834 -13.8379  -6.1705  -5.6162  -5.5542
     0.7087   0.8080   1.1011   6.3842   6.8517   6.9239   7.8196   8.0064
     8.7681   9.3406   9.5491  10.1913  13.7385  14.0036  14.2731  15.5584

          k = 0.0833 0.0833-0.4167 (  2538 PWs)   bands (ev):

   -46.0502 -22.3350 -22.2849 -22.2847 -13.8967  -6.5226  -5.6617  -5.4313
     0.8751   0.9767   1.1484   6.5231   7.6780   7.7548   7.9702   8.3112
     9.0324   9.1457   9.5456   9.6560  12.6485  13.9545  13.9614  14.8445

          k = 0.0833 0.0833-0.1667 (  2542 PWs)   bands (ev):

   -46.0510 -22.2970 -22.2865 -22.2863 -13.9841  -6.3634  -5.6840  -5.6703
     0.7846   0.7973   0.9917   7.6162   7.9828   8.0363   8.6943   8.7611
     9.2836   9.5179  10.0403  10.0418  12.5855  12.8873  12.8957  14.8509

          k =-0.0833-0.4167-0.0833 (  2538 PWs)   bands (ev):

   -46.0502 -22.3350 -22.2849 -22.2847 -13.8967  -6.5226  -5.6617  -5.4313
     0.8751   0.9767   1.1484   6.5231   7.6780   7.7548   7.9702   8.3112
     9.0324   9.1457   9.5456   9.6560  12.6485  13.9545  13.9614  14.8445

          k =-0.0833-0.4167 0.1667 (  2543 PWs)   bands (ev):

   -46.0500 -22.3343 -22.2948 -22.2844 -13.8811  -6.4318  -5.6432  -5.4692
     0.8074   0.9620   1.1217   6.4902   7.4560   7.6512   7.7776   8.2531
     9.0351   9.2520   9.4847   9.6540  12.9640  13.9692  14.0125  15.1715

          k = 0.2500 0.0833-0.2500 (  2554 PWs)   bands (ev):

   -46.0502 -22.3101 -22.3093 -22.2849 -13.9066  -6.3093  -5.6550  -5.6080
     0.7375   0.8413   1.1673   6.9346   7.4267   7.7009   8.0192   8.3156
     8.8350   9.4599   9.5363   9.9692  13.2673  13.3918  13.6354  15.3373

          k = 0.2500 0.0833 0.0000 (  2545 PWs)   bands (ev):

   -46.0508 -22.3112 -22.2859 -22.2821 -13.9596  -6.4229  -5.6808  -5.5989
     0.8266   0.8736   1.0280   7.2544   7.9086   7.9920   8.5110   8.7248
     9.0406   9.3083   9.9290   9.9468  12.4878  13.2589  13.2870  14.6828

          k = 0.2500 0.2500 0.0833 (  2554 PWs)   bands (ev):

   -46.0502 -22.3101 -22.3093 -22.2849 -13.9066  -6.3093  -5.6550  -5.6080
     0.7375   0.8413   1.1673   6.9346   7.4267   7.7009   8.0192   8.3156
     8.8350   9.4599   9.5363   9.9692  13.2673  13.3918  13.6354  15.3373

          k = 0.2500 0.2500 0.3333 (  2533 PWs)   bands (ev):

   -46.0495 -22.3222 -22.3082 -22.3076 -13.8427  -6.0986  -5.5857  -5.5784
     0.5271   0.5787   1.1238   6.6129   7.1474   7.3838   7.6628   8.1087
     8.2001   9.6514   9.8507   9.8558  13.7757  13.9815  14.0032  16.5189

          k =-0.2500 0.2500-0.0833 (  2554 PWs)   bands (ev):

   -46.0502 -22.3101 -22.3093 -22.2849 -13.9066  -6.3093  -5.6550  -5.6080
     0.7375   0.8413   1.1673   6.9346   7.4267   7.7009   8.0192   8.3156
     8.8350   9.4599   9.5363   9.9692  13.2673  13.3918  13.6354  15.3373

          k =-0.2500 0.2500 0.1667 (  2552 PWs)   bands (ev):

   -46.0500 -22.3096 -22.3089 -22.2949 -13.8897  -6.2390  -5.6367  -5.6161
     0.6811   0.6977   1.2343   6.8401   7.4138   7.5950   8.0455   8.2218
     8.4369   9.6209   9.6325   9.8806  13.4499  13.5249  13.6745  15.8910

          k = 0.0833 0.4167 0.2500 (  2541 PWs)   bands (ev):

   -46.0498 -22.3335 -22.3085 -22.2839 -13.8597  -6.3037  -5.6234  -5.5171
     0.7478   0.8935   1.1088   6.4475   7.1197   7.3057   7.7905   8.1534
     8.9128   9.2683   9.4421   9.9647  13.3619  13.9864  14.1207  15.4286

          k = 0.0833 0.4167 0.5000 (  2540 PWs)   bands (ev):

   -46.0492 -22.3356 -22.3317 -22.2829 -13.8159  -6.0346  -5.6048  -5.5945
     0.6905   0.7144   1.0895   6.2096   6.6325   6.6431   7.8191   7.8825
     8.5840   9.5891   9.6003  10.3505  14.0164  14.1111  14.4746  15.6211

          k = 0.2500 0.0833-0.4167 (  2541 PWs)   bands (ev):

   -46.0498 -22.3335 -22.3085 -22.2839 -13.8597  -6.3037  -5.6234  -5.5171
     0.7478   0.8935   1.1088   6.4475   7.1197   7.3057   7.7905   8.1534
     8.9128   9.2683   9.4421   9.9647  13.3619  13.9864  14.1207  15.4286

          k = 0.2500 0.0833-0.1667 (  2551 PWs)   bands (ev):

   -46.0505 -22.3105 -22.2959 -22.2854 -13.9333  -6.3541  -5.6644  -5.6211
     0.7677   0.8327   1.1387   7.1128   7.6624   7.8888   8.2172   8.4469
     9.0006   9.3733   9.7267   9.9061  12.9201  13.3164  13.4180  15.1564

          k =-0.0833-0.4167-0.2500 (  2541 PWs)   bands (ev):

   -46.0498 -22.3335 -22.3085 -22.2839 -13.8597  -6.3037  -5.6234  -5.5171
     0.7478   0.8935   1.1088   6.4475   7.1197   7.3057   7.7905   8.1534
     8.9128   9.2683   9.4421   9.9647  13.3619  13.9864  14.1207  15.4286

          k =-0.0833-0.4167 0.0000 (  2547 PWs)   bands (ev):

   -46.0503 -22.3352 -22.2849 -22.2811 -13.9024  -6.5553  -5.6689  -5.4171
     0.9210   0.9569   1.1634   6.5366   7.7186   7.7567   8.0954   8.5478
     8.6942   9.1209   9.6825   9.6991  12.5253  13.9440  13.9533  14.6840

          k = 0.4167 0.2500 0.0833 (  2541 PWs)   bands (ev):

   -46.0498 -22.3335 -22.3085 -22.2839 -13.8597  -6.3037  -5.6234  -5.5171
     0.7478   0.8935   1.1088   6.4475   7.1197   7.3057   7.7905   8.1534
     8.9128   9.2683   9.4421   9.9647  13.3619  13.9864  14.1207  15.4286

          k = 0.4167 0.2500 0.3333 (  2537 PWs)   bands (ev):

   -46.0490 -22.3313 -22.3209 -22.3068 -13.8050  -5.9378  -5.5490  -5.5278
     0.3880   0.4783   0.8485   6.3747   6.9007   7.2351   7.4544   8.0811
     8.1804   9.6998   9.8783  10.1350  14.0826  14.2541  14.3697  16.7927

          k =-0.2500 0.4167-0.0833 (  2541 PWs)   bands (ev):

   -46.0498 -22.3335 -22.3085 -22.2839 -13.8597  -6.3037  -5.6234  -5.5171
     0.7478   0.8935   1.1088   6.4475   7.1197   7.3057   7.7905   8.1534
     8.9128   9.2683   9.4421   9.9647  13.3619  13.9864  14.1207  15.4286

          k =-0.2500 0.4167 0.1667 (  2540 PWs)   bands (ev):

   -46.0496 -22.3329 -22.3080 -22.2939 -13.8452  -6.2096  -5.5983  -5.5238
     0.6079   0.7582   1.0989   6.4327   7.1140   7.3488   7.7105   8.1086
     8.5422   9.4548   9.5927   9.9217  13.5488  14.0680  14.1578  15.9544

          k = 0.4167 0.0833-0.4167 (  2540 PWs)   bands (ev):

   -46.0493 -22.3321 -22.3319 -22.2830 -13.8219  -6.0708  -5.6163  -5.5758
     0.6919   0.7415   1.0932   6.2760   6.6906   6.6951   7.8398   7.8943
     8.6364   9.4824   9.6199  10.3135  13.9963  14.0281  14.4155  15.6090

          k = 0.4167 0.0833-0.1667 (  2543 PWs)   bands (ev):

   -46.0500 -22.3343 -22.2948 -22.2844 -13.8811  -6.4318  -5.6432  -5.4692
     0.8074   0.9620   1.1217   6.4902   7.4560   7.6512   7.7776   8.2531
     9.0351   9.2520   9.4847   9.6540  12.9640  13.9692  14.0125  15.1715

          k = 0.4167 0.4167 0.0833 (  2540 PWs)   bands (ev):

   -46.0493 -22.3321 -22.3319 -22.2830 -13.8219  -6.0708  -5.6163  -5.5758
     0.6919   0.7415   1.0932   6.2760   6.6906   6.6951   7.8398   7.8943
     8.6364   9.4824   9.6199  10.3135  13.9963  14.0281  14.4155  15.6090

          k = 0.4167 0.4167 0.3333 (  2525 PWs)   bands (ev):

   -46.0485 -22.3302 -22.3300 -22.3198 -13.7716  -5.6868  -5.4990  -5.4870
     0.1977   0.2284   0.4560   6.2169   6.6979   6.9507   7.6654   8.1120
     8.1316  10.0380  10.0902  10.2783  14.4703  14.4732  14.5723  17.4342

          k =-0.4167 0.4167-0.0833 (  2540 PWs)   bands (ev):

   -46.0493 -22.3321 -22.3319 -22.2830 -13.8219  -6.0708  -5.6163  -5.5758
     0.6919   0.7415   1.0932   6.2760   6.6906   6.6951   7.8398   7.8943
     8.6364   9.4824   9.6199  10.3135  13.9963  14.0281  14.4155  15.6090

          k =-0.4167 0.4167 0.1667 (  2531 PWs)   bands (ev):

   -46.0491 -22.3316 -22.3314 -22.2929 -13.8085  -5.9720  -5.5859  -5.5519
     0.5634   0.5687   0.9244   6.2757   6.6920   6.9641   7.8253   7.9744
     8.2384   9.6051   9.7254  10.3005  14.1137  14.1386  14.4554  16.1729

          k = 0.2500 0.2500-0.2500 (  2542 PWs)   bands (ev):

   -46.0498 -22.3093 -22.3082 -22.3082 -13.8663  -6.1562  -5.6114  -5.6114
     0.6041   0.6041   1.2162   6.7411   7.3975   7.3975   7.9331   8.1474
     8.1474   9.7638   9.7638   9.7677  13.7105  13.7346  13.7346  16.5347

          k = 0.2500 0.2500 0.0000 (  2556 PWs)   bands (ev):

   -46.0503 -22.3103 -22.3095 -22.2812 -13.9128  -6.3364  -5.6616  -5.6034
     0.7581   0.9611   1.0742   6.9744   7.4314   7.7819   7.9543   8.3645
     8.9865   9.3833   9.5222  10.0025  13.2063  13.3469  13.6209  15.1090

          k = 0.2500 0.4167 0.2500 (  2534 PWs)   bands (ev):

   -46.0493 -22.3321 -22.3077 -22.3072 -13.8252  -6.0766  -5.5666  -5.5317
     0.4706   0.6126   1.0011   6.4158   7.1058   7.3761   7.4303   8.0956
     8.2928   9.5704   9.8793   9.8920  13.8114  14.1894  14.2201  16.5027

          k = 0.2500 0.4167 0.5000 (  2528 PWs)   bands (ev):

   -46.0487 -22.3344 -22.3306 -22.3062 -13.7846  -5.7937  -5.5289  -5.5279
     0.3428   0.3986   0.6156   6.1912   6.6500   7.3369   7.4245   8.0635
     8.0912   9.8502   9.9012  10.3358  14.3053  14.3711  14.5707  16.8517

          k = 0.2500 0.2500-0.4167 (  2534 PWs)   bands (ev):

   -46.0493 -22.3321 -22.3077 -22.3072 -13.8252  -6.0766  -5.5666  -5.5317
     0.4706   0.6126   1.0011   6.4158   7.1058   7.3761   7.4303   8.0956
     8.2928   9.5704   9.8793   9.8920  13.8114  14.1894  14.2201  16.5027

          k = 0.2500 0.2500-0.1667 (  2552 PWs)   bands (ev):

   -46.0500 -22.3096 -22.3089 -22.2949 -13.8897  -6.2390  -5.6367  -5.6161
     0.6811   0.6977   1.2343   6.8401   7.4138   7.5950   8.0455   8.2218
     8.4369   9.6209   9.6325   9.8806  13.4499  13.5249  13.6745  15.8910

          k =-0.2500-0.4167-0.2500 (  2534 PWs)   bands (ev):

   -46.0493 -22.3321 -22.3077 -22.3072 -13.8252  -6.0766  -5.5666  -5.5317
     0.4706   0.6126   1.0011   6.4158   7.1058   7.3761   7.4303   8.0956
     8.2928   9.5704   9.8793   9.8920  13.8114  14.1894  14.2201  16.5027

          k =-0.2500-0.4167 0.0000 (  2558 PWs)   bands (ev):

   -46.0498 -22.3337 -22.3086 -22.2803 -13.8649  -6.3375  -5.6328  -5.5148
     0.8065   0.9959   1.0532   6.4545   7.1251   7.2905   7.7838   8.1884
     9.0606   9.2099   9.3921   9.9831  13.2957  13.9594  14.1072  15.2088

          k = 0.4167 0.2500-0.4167 (  2527 PWs)   bands (ev):

   -46.0488 -22.3309 -22.3307 -22.3064 -13.7901  -5.8325  -5.5432  -5.5192
     0.3649   0.3933   0.6936   6.2646   6.6946   7.2869   7.4536   8.0566
     8.1257   9.8050   9.8953  10.2863  14.2849  14.2982  14.5124  16.8519

          k = 0.4167 0.2500-0.1667 (  2540 PWs)   bands (ev):

   -46.0496 -22.3329 -22.3080 -22.2939 -13.8452  -6.2096  -5.5983  -5.5238
     0.6079   0.7582   1.0989   6.4327   7.1140   7.3488   7.7105   8.1086
     8.5422   9.4548   9.5927   9.9217  13.5488  14.0680  14.1578  15.9544

          k = 0.4167 0.4167 0.2500 (  2527 PWs)   bands (ev):

   -46.0488 -22.3309 -22.3307 -22.3064 -13.7901  -5.8325  -5.5432  -5.5192
     0.3649   0.3933   0.6936   6.2646   6.6946   7.2869   7.4536   8.0566
     8.1257   9.8050   9.8953  10.2863  14.2849  14.2982  14.5124  16.8519

          k = 0.4167 0.4167 0.5000 (  2516 PWs)   bands (ev):

   -46.0483 -22.3331 -22.3295 -22.3293 -13.7528  -5.5294  -5.4605  -5.4534
     0.0677   0.1024   0.1715   6.0483   6.6380   6.7017   7.9668   8.1462
     8.1487  10.2416  10.2925  10.3420  14.6352  14.6746  14.6773  17.5783

          k =-0.4167 0.4167-0.2500 (  2527 PWs)   bands (ev):

   -46.0488 -22.3309 -22.3307 -22.3064 -13.7901  -5.8325  -5.5432  -5.5192
     0.3649   0.3933   0.6936   6.2646   6.6946   7.2869   7.4536   8.0566
     8.1257   9.8050   9.8953  10.2863  14.2849  14.2982  14.5124  16.8519

          k =-0.4167 0.4167 0.0000 (  2542 PWs)   bands (ev):

   -46.0494 -22.3323 -22.3320 -22.2794 -13.8267  -6.1063  -5.6273  -5.5845
     0.7399   0.8104   1.1551   6.2751   6.5933   6.6903   7.8106   7.8605
     8.8330   9.4388   9.5854  10.3188  13.9555  13.9886  14.4012  15.3829

          k = 0.4167 0.4167-0.4167 (  2515 PWs)   bands (ev):

   -46.0484 -22.3297 -22.3295 -22.3295 -13.7579  -5.5740  -5.4658  -5.4658
     0.1104   0.1104   0.2631   6.1125   6.7006   6.7006   7.8932   8.1388
     8.1388  10.2228  10.2228  10.3006  14.6170  14.6170  14.6201  17.7040

          k = 0.4167 0.4167-0.1667 (  2531 PWs)   bands (ev):

   -46.0491 -22.3316 -22.3314 -22.2929 -13.8085  -5.9720  -5.5859  -5.5519
     0.5634   0.5687   0.9244   6.2757   6.6920   6.9641   7.8253   7.9744
     8.2384   9.6051   9.7254  10.3005  14.1137  14.1386  14.4554  16.1729

     highest occupied, lowest unoccupied level (ev):    10.3135   12.5414

     Writing output data file bto.save

                                                                                

     bravais-lattice index     =            1
     lattice parameter (alat)  =       7.5234  a.u.
     unit-cell volume          =     425.8418 (a.u.)^3
     number of atoms/cell      =            5
     number of atomic types    =            3
     kinetic-energy cut-off    =      50.0000  Ry
     charge density cut-off    =     400.0000  Ry
     convergence threshold     =      1.0E-12
     beta                      =       0.7000
     number of iterations used =            4
     Exchange-correlation      =  SLA  PW   PBE  PBE ( 1  4  3  4 0 0)


     celldm(1)=    7.52343  celldm(2)=    0.00000  celldm(3)=    0.00000
     celldm(4)=    0.00000  celldm(5)=    0.00000  celldm(6)=    0.00000

     crystal axes: (cart. coord. in units of alat)
               a(1) = (  1.0000  0.0000  0.0000 )  
               a(2) = (  0.0000  1.0000  0.0000 )  
               a(3) = (  0.0000  0.0000  1.0000 )  

     reciprocal axes: (cart. coord. in units 2 pi/alat)
               b(1) = (  1.0000  0.0000  0.0000 )  
               b(2) = (  0.0000  1.0000  0.0000 )  
               b(3) = (  0.0000  0.0000  1.0000 )  


     Atoms inside the unit cell: 

     Cartesian axes

     site n.  atom      mass           positions (alat units)
        1     Ba 137.3300   tau(    1) = (    0.00000    0.00000    0.00000  )
        2     Ti  47.8800   tau(    2) = (    0.50000    0.50000    0.50000  )
        3     O   15.9900   tau(    3) = (    0.00000    0.50000    0.50000  )
        4     O   15.9900   tau(    4) = (    0.50000    0.00000    0.50000  )
        5     O   15.9900   tau(    5) = (    0.50000    0.50000    0.00000  )

     Computing dynamical matrix for 
                    q = (   0.0000000   0.0000000   0.2500000 )
 
      8 Sym.Ops. (no q -> -q+G )


     G cutoff =  573.4987  (   2058 G-vectors)     FFT grid: ( 48, 48, 48)
     G cutoff =  286.7494  (    730 G-vectors)  smooth grid: ( 36, 36, 36)
     number of k points=    72

     PseudoPot. # 1 for O  read from file:
     ../../PSP_DIR/O.pbe-rrkjus.UPF
     MD5 check sum: 390ba29e75625707450f3bd3f0eb6be9
     Pseudo is Ultrasoft, Zval =  6.0
     Generated by new atomic code, or converted to UPF format
     Using radial grid of 1269 points,  4 beta functions with: 
                l(1) =   0
                l(2) =   0
                l(3) =   1
                l(4) =   1
     Q(r) pseudized with 0 coefficients 


     PseudoPot. # 2 for Ti read from file:
     ../../PSP_DIR/Ti.pbe-sp-van_ak.UPF
     MD5 check sum: 8e4df49b7f0d34bbd5052bf3f5ea0213
     Pseudo is Ultrasoft, Zval = 12.0
     Generated by new atomic code, or converted to UPF format
     Using radial grid of  851 points,  6 beta functions with: 
                l(1) =   0
                l(2) =   0
                l(3) =   1
                l(4) =   1
                l(5) =   2
                l(6) =   2
     Q(r) pseudized with  8 coefficients,  rinner =    1.000   1.000   1.000
                                                       1.000   1.000

     PseudoPot. # 3 for Ba read from file:
     ../../PSP_DIR/Ba.pbe-nsp-van.UPF
     MD5 check sum: a011de417d3466d8e94df216395bc359
     Pseudo is Ultrasoft + core correction, Zval = 10.0
     Generated by new atomic code, or converted to UPF format
     Using radial grid of  907 points,  6 beta functions with: 
                l(1) =   0
                l(2) =   0
                l(3) =   1
                l(4) =   1
                l(5) =   2
                l(6) =   2
     Q(r) pseudized with  6 coefficients,  rinner =    1.200   1.200   1.200
                                                       1.200   1.200

     Mode symmetry, C_4v (4mm)  point group:


     Atomic displacements:
     There are  10 irreducible representations

     Representation     1      1 modes -A_1  G_1 D_1  To be done

     Representation     2      1 modes -A_1  G_1 D_1  To be done

     Representation     3      1 modes -A_1  G_1 D_1  To be done

     Representation     4      1 modes -A_1  G_1 D_1  To be done

     Representation     5      1 modes -B_1  G_3 D_2  To be done

     Representation     6      2 modes -E    G_5 D_5  To be done

     Representation     7      2 modes -E    G_5 D_5  To be done

     Representation     8      2 modes -E    G_5 D_5  To be done

     Representation     9      2 modes -E    G_5 D_5  To be done

     Representation    10      2 modes -E    G_5 D_5  To be done



     Alpha used in Ewald sum =   2.8000
     PHONON       :  1m16.72s CPU     1m21.88s WALL



     Representation #  1 mode #   1

     Self-consistent Calculation

      iter #   1 total cpu time :    84.1 secs   av.it.:   9.4
      thresh= 1.000E-02 alpha_mix =  0.700 |ddv_scf|^2 =  3.279E-04

      iter #   2 total cpu time :    85.9 secs   av.it.:  14.5
      thresh= 1.811E-03 alpha_mix =  0.700 |ddv_scf|^2 =  3.035E-03

      iter #   3 total cpu time :    87.3 secs   av.it.:  11.9
      thresh= 5.509E-03 alpha_mix =  0.700 |ddv_scf|^2 =  6.146E-06

      iter #   4 total cpu time :    89.3 secs   av.it.:  15.0
      thresh= 2.479E-04 alpha_mix =  0.700 |ddv_scf|^2 =  5.973E-07

      iter #   5 total cpu time :    91.2 secs   av.it.:  15.6
      thresh= 7.729E-05 alpha_mix =  0.700 |ddv_scf|^2 =  1.990E-07

      iter #   6 total cpu time :    93.3 secs   av.it.:  15.5
      thresh= 4.461E-05 alpha_mix =  0.700 |ddv_scf|^2 =  5.970E-10

      iter #   7 total cpu time :    95.3 secs   av.it.:  16.6
      thresh= 2.443E-06 alpha_mix =  0.700 |ddv_scf|^2 =  6.264E-10

      iter #   8 total cpu time :    97.3 secs   av.it.:  15.6
      thresh= 2.503E-06 alpha_mix =  0.700 |ddv_scf|^2 =  1.925E-10

      iter #   9 total cpu time :    99.3 secs   av.it.:  14.4
      thresh= 1.387E-06 alpha_mix =  0.700 |ddv_scf|^2 =  6.432E-13

     End of self-consistent calculation

     Convergence has been achieved 


     Representation #  2 mode #   2

     Self-consistent Calculation

      iter #   1 total cpu time :   100.9 secs   av.it.:  10.7
      thresh= 1.000E-02 alpha_mix =  0.700 |ddv_scf|^2 =  5.638E-04

      iter #   2 total cpu time :   102.9 secs   av.it.:  14.9
      thresh= 2.374E-03 alpha_mix =  0.700 |ddv_scf|^2 =  5.607E-03

      iter #   3 total cpu time :   104.7 secs   av.it.:  11.9
      thresh= 7.488E-03 alpha_mix =  0.700 |ddv_scf|^2 =  6.168E-06

      iter #   4 total cpu time :   106.9 secs   av.it.:  15.5
      thresh= 2.484E-04 alpha_mix =  0.700 |ddv_scf|^2 =  1.100E-06

      iter #   5 total cpu time :   109.1 secs   av.it.:  16.1
      thresh= 1.049E-04 alpha_mix =  0.700 |ddv_scf|^2 =  3.382E-07

      iter #   6 total cpu time :   111.4 secs   av.it.:  15.8
      thresh= 5.816E-05 alpha_mix =  0.700 |ddv_scf|^2 =  1.231E-08

      iter #   7 total cpu time :   114.2 secs   av.it.:  16.3
      thresh= 1.109E-05 alpha_mix =  0.700 |ddv_scf|^2 =  1.324E-08

      iter #   8 total cpu time :   116.3 secs   av.it.:  14.2
      thresh= 1.151E-05 alpha_mix =  0.700 |ddv_scf|^2 =  3.538E-11

      iter #   9 total cpu time :   118.5 secs   av.it.:  16.0
      thresh= 5.949E-07 alpha_mix =  0.700 |ddv_scf|^2 =  7.930E-12

      iter #  10 total cpu time :   121.0 secs   av.it.:  16.2
      thresh= 2.816E-07 alpha_mix =  0.700 |ddv_scf|^2 =  5.803E-13

     End of self-consistent calculation

     Convergence has been achieved 


     Representation #  3 mode #   3

     Self-consistent Calculation

      iter #   1 total cpu time :   123.0 secs   av.it.:   9.2
      thresh= 1.000E-02 alpha_mix =  0.700 |ddv_scf|^2 =  2.471E-04

      iter #   2 total cpu time :   125.1 secs   av.it.:  14.8
      thresh= 1.572E-03 alpha_mix =  0.700 |ddv_scf|^2 =  2.644E-03

      iter #   3 total cpu time :   126.8 secs   av.it.:  12.2
      thresh= 5.142E-03 alpha_mix =  0.700 |ddv_scf|^2 =  1.208E-06

      iter #   4 total cpu time :   129.0 secs   av.it.:  16.1
      thresh= 1.099E-04 alpha_mix =  0.700 |ddv_scf|^2 =  5.991E-07

      iter #   5 total cpu time :   131.1 secs   av.it.:  15.3
      thresh= 7.740E-05 alpha_mix =  0.700 |ddv_scf|^2 =  3.863E-08

      iter #   6 total cpu time :   133.8 secs   av.it.:  16.3
      thresh= 1.965E-05 alpha_mix =  0.700 |ddv_scf|^2 =  6.620E-09

      iter #   7 total cpu time :   135.8 secs   av.it.:  16.1
      thresh= 8.136E-06 alpha_mix =  0.700 |ddv_scf|^2 =  1.698E-09

      iter #   8 total cpu time :   137.8 secs   av.it.:  15.1
      thresh= 4.120E-06 alpha_mix =  0.700 |ddv_scf|^2 =  1.743E-09

      iter #   9 total cpu time :   139.6 secs   av.it.:  14.2
      thresh= 4.175E-06 alpha_mix =  0.700 |ddv_scf|^2 =  7.810E-13

     End of self-consistent calculation

     Convergence has been achieved 


     Representation #  4 mode #   4

     Self-consistent Calculation

      iter #   1 total cpu time :   141.2 secs   av.it.:   9.3
      thresh= 1.000E-02 alpha_mix =  0.700 |ddv_scf|^2 =  3.736E-04

      iter #   2 total cpu time :   143.0 secs   av.it.:  14.6
      thresh= 1.933E-03 alpha_mix =  0.700 |ddv_scf|^2 =  3.679E-03

      iter #   3 total cpu time :   145.0 secs   av.it.:  11.9
      thresh= 6.065E-03 alpha_mix =  0.700 |ddv_scf|^2 =  2.360E-06

      iter #   4 total cpu time :   147.4 secs   av.it.:  16.2
      thresh= 1.536E-04 alpha_mix =  0.700 |ddv_scf|^2 =  6.322E-07

      iter #   5 total cpu time :   149.6 secs   av.it.:  15.6
      thresh= 7.951E-05 alpha_mix =  0.700 |ddv_scf|^2 =  2.625E-08

      iter #   6 total cpu time :   151.9 secs   av.it.:  16.4
      thresh= 1.620E-05 alpha_mix =  0.700 |ddv_scf|^2 =  9.207E-09

      iter #   7 total cpu time :   153.8 secs   av.it.:  15.6
      thresh= 9.596E-06 alpha_mix =  0.700 |ddv_scf|^2 =  1.068E-10

      iter #   8 total cpu time :   155.9 secs   av.it.:  16.9
      thresh= 1.034E-06 alpha_mix =  0.700 |ddv_scf|^2 =  1.688E-11

      iter #   9 total cpu time :   158.2 secs   av.it.:  16.5
      thresh= 4.109E-07 alpha_mix =  0.700 |ddv_scf|^2 =  9.036E-12

      iter #  10 total cpu time :   160.5 secs   av.it.:  15.1
      thresh= 3.006E-07 alpha_mix =  0.700 |ddv_scf|^2 =  4.579E-12

      iter #  11 total cpu time :   162.9 secs   av.it.:  14.3
      thresh= 2.140E-07 alpha_mix =  0.700 |ddv_scf|^2 =  6.168E-13

     End of self-consistent calculation

     Convergence has been achieved 


     Representation #  5 mode #   5

     Self-consistent Calculation

      iter #   1 total cpu time :   164.3 secs   av.it.:   8.0
      thresh= 1.000E-02 alpha_mix =  0.700 |ddv_scf|^2 =  1.462E-06

      iter #   2 total cpu time :   166.3 secs   av.it.:  15.8
      thresh= 1.209E-04 alpha_mix =  0.700 |ddv_scf|^2 =  2.462E-08

      iter #   3 total cpu time :   168.3 secs   av.it.:  16.5
      thresh= 1.569E-05 alpha_mix =  0.700 |ddv_scf|^2 =  1.177E-08

      iter #   4 total cpu time :   170.3 secs   av.it.:  15.4
      thresh= 1.085E-05 alpha_mix =  0.700 |ddv_scf|^2 =  1.298E-09

      iter #   5 total cpu time :   172.3 secs   av.it.:  15.3
      thresh= 3.603E-06 alpha_mix =  0.700 |ddv_scf|^2 =  1.480E-11

      iter #   6 total cpu time :   174.6 secs   av.it.:  15.4
      thresh= 3.847E-07 alpha_mix =  0.700 |ddv_scf|^2 =  7.791E-14

     End of self-consistent calculation

     Convergence has been achieved 


     Representation #  6 modes #   6  7

     Self-consistent Calculation

      iter #   1 total cpu time :   177.3 secs   av.it.:   7.8
      thresh= 1.000E-02 alpha_mix =  0.700 |ddv_scf|^2 =  2.915E-07

      iter #   2 total cpu time :   181.4 secs   av.it.:  17.7
      thresh= 5.399E-05 alpha_mix =  0.700 |ddv_scf|^2 =  4.628E-08

      iter #   3 total cpu time :   185.4 secs   av.it.:  17.7
      thresh= 2.151E-05 alpha_mix =  0.700 |ddv_scf|^2 =  6.105E-10

      iter #   4 total cpu time :   189.8 secs   av.it.:  17.8
      thresh= 2.471E-06 alpha_mix =  0.700 |ddv_scf|^2 =  3.063E-11

      iter #   5 total cpu time :   193.7 secs   av.it.:  17.9
      thresh= 5.535E-07 alpha_mix =  0.700 |ddv_scf|^2 =  6.531E-13

     End of self-consistent calculation

     Convergence has been achieved 


     Representation #  7 modes #   8  9

     Self-consistent Calculation

      iter #   1 total cpu time :   197.1 secs   av.it.:  10.2
      thresh= 1.000E-02 alpha_mix =  0.700 |ddv_scf|^2 =  2.259E-06

      iter #   2 total cpu time :   201.7 secs   av.it.:  18.1
      thresh= 1.503E-04 alpha_mix =  0.700 |ddv_scf|^2 =  5.156E-07

      iter #   3 total cpu time :   205.8 secs   av.it.:  17.7
      thresh= 7.180E-05 alpha_mix =  0.700 |ddv_scf|^2 =  1.194E-09

      iter #   4 total cpu time :   209.9 secs   av.it.:  18.3
      thresh= 3.456E-06 alpha_mix =  0.700 |ddv_scf|^2 =  7.741E-11

      iter #   5 total cpu time :   214.0 secs   av.it.:  17.4
      thresh= 8.798E-07 alpha_mix =  0.700 |ddv_scf|^2 =  1.053E-12

      iter #   6 total cpu time :   218.2 secs   av.it.:  17.7
      thresh= 1.026E-07 alpha_mix =  0.700 |ddv_scf|^2 =  1.993E-14

     End of self-consistent calculation

     Convergence has been achieved 


     Representation #  8 modes #  10 11

     Self-consistent Calculation

      iter #   1 total cpu time :   220.7 secs   av.it.:   8.4
      thresh= 1.000E-02 alpha_mix =  0.700 |ddv_scf|^2 =  5.393E-07

      iter #   2 total cpu time :   225.2 secs   av.it.:  18.1
      thresh= 7.344E-05 alpha_mix =  0.700 |ddv_scf|^2 =  5.371E-08

      iter #   3 total cpu time :   229.6 secs   av.it.:  17.9
      thresh= 2.317E-05 alpha_mix =  0.700 |ddv_scf|^2 =  1.158E-09

      iter #   4 total cpu time :   234.2 secs   av.it.:  17.8
      thresh= 3.402E-06 alpha_mix =  0.700 |ddv_scf|^2 =  1.075E-11

      iter #   5 total cpu time :   238.5 secs   av.it.:  17.8
      thresh= 3.278E-07 alpha_mix =  0.700 |ddv_scf|^2 =  8.095E-13

     End of self-consistent calculation

     Convergence has been achieved 


     Representation #  9 modes #  12 13

     Self-consistent Calculation

      iter #   1 total cpu time :   241.1 secs   av.it.:   9.0
      thresh= 1.000E-02 alpha_mix =  0.700 |ddv_scf|^2 =  3.850E-07

      iter #   2 total cpu time :   245.5 secs   av.it.:  18.4
      thresh= 6.205E-05 alpha_mix =  0.700 |ddv_scf|^2 =  3.608E-08

      iter #   3 total cpu time :   250.1 secs   av.it.:  18.1
      thresh= 1.900E-05 alpha_mix =  0.700 |ddv_scf|^2 =  1.078E-09

      iter #   4 total cpu time :   254.2 secs   av.it.:  17.8
      thresh= 3.283E-06 alpha_mix =  0.700 |ddv_scf|^2 =  1.205E-11

      iter #   5 total cpu time :   258.2 secs   av.it.:  17.8
      thresh= 3.472E-07 alpha_mix =  0.700 |ddv_scf|^2 =  8.711E-13

     End of self-consistent calculation

     Convergence has been achieved 


     Representation # 10 modes #  14 15

     Self-consistent Calculation

      iter #   1 total cpu time :   261.3 secs   av.it.:   9.0
      thresh= 1.000E-02 alpha_mix =  0.700 |ddv_scf|^2 =  8.192E-07

      iter #   2 total cpu time :   265.8 secs   av.it.:  18.3
      thresh= 9.051E-05 alpha_mix =  0.700 |ddv_scf|^2 =  1.167E-07

      iter #   3 total cpu time :   269.7 secs   av.it.:  17.8
      thresh= 3.416E-05 alpha_mix =  0.700 |ddv_scf|^2 =  9.909E-10

      iter #   4 total cpu time :   273.9 secs   av.it.:  18.0
      thresh= 3.148E-06 alpha_mix =  0.700 |ddv_scf|^2 =  9.356E-12

      iter #   5 total cpu time :   277.7 secs   av.it.:  17.3
      thresh= 3.059E-07 alpha_mix =  0.700 |ddv_scf|^2 =  3.576E-13

     End of self-consistent calculation

     Convergence has been achieved 
 
     Number of q in the star =    6
     List of q in the star:
          1   0.000000000   0.000000000   0.250000000
          2   0.000000000   0.250000000   0.000000000
          3   0.000000000   0.000000000  -0.250000000
          4   0.000000000  -0.250000000   0.000000000
          5   0.250000000   0.000000000   0.000000000
          6  -0.250000000   0.000000000   0.000000000

     Diagonalizing the dynamical matrix

     q = (    0.000000000   0.000000000   0.250000000 ) 

 **************************************************************************
     freq (    1) =      -3.467776 [THz] =    -115.672552 [cm-1]
     freq (    2) =      -3.467776 [THz] =    -115.672552 [cm-1]
     freq (    3) =       2.512717 [THz] =      83.815209 [cm-1]
     freq (    4) =       2.512717 [THz] =      83.815209 [cm-1]
     freq (    5) =       3.396142 [THz] =     113.283095 [cm-1]
     freq (    6) =       5.828644 [THz] =     194.422626 [cm-1]
     freq (    7) =       5.828644 [THz] =     194.422626 [cm-1]
     freq (    8) =       6.709141 [THz] =     223.792862 [cm-1]
     freq (    9) =       9.331915 [THz] =     311.279172 [cm-1]
     freq (   10) =       9.709555 [THz] =     323.875898 [cm-1]
     freq (   11) =       9.709555 [THz] =     323.875898 [cm-1]
     freq (   12) =      14.163202 [THz] =     472.433578 [cm-1]
     freq (   13) =      14.163202 [THz] =     472.433578 [cm-1]
     freq (   14) =      14.751938 [THz] =     492.071673 [cm-1]
     freq (   15) =      20.317184 [THz] =     677.708303 [cm-1]
 **************************************************************************

     Mode symmetry, C_4v (4mm)  point group:

     freq (  1 -  2) =       -115.7  [cm-1]   --> E    G_5 D_5       
     freq (  3 -  4) =         83.8  [cm-1]   --> E    G_5 D_5       
     freq (  5 -  5) =        113.3  [cm-1]   --> A_1  G_1 D_1       
     freq (  6 -  7) =        194.4  [cm-1]   --> E    G_5 D_5       
     freq (  8 -  8) =        223.8  [cm-1]   --> A_1  G_1 D_1       
     freq (  9 -  9) =        311.3  [cm-1]   --> B_1  G_3 D_2       
     freq ( 10 - 11) =        323.9  [cm-1]   --> E    G_5 D_5       
     freq ( 12 - 13) =        472.4  [cm-1]   --> E    G_5 D_5       
     freq ( 14 - 14) =        492.1  [cm-1]   --> A_1  G_1 D_1       
     freq ( 15 - 15) =        677.7  [cm-1]   --> A_1  G_1 D_1       

     Calculation of q =    0.0000000   0.0000000  -0.5000000

   Info: using nr1, nr2, nr3 values from input

   Info: using nr1, nr2, nr3 values from input
 
     Parallelization info
     --------------------
     sticks:   dense  smooth     PW     G-vecs:    dense   smooth      PW
     Min          63      31      9                 2051      723     119
     Max          64      32     10                 2058      730     122
     Sum        1789     885    277                57555    20341    3407
 


     bravais-lattice index     =            1
     lattice parameter (alat)  =       7.5234  a.u.
     unit-cell volume          =     425.8418 (a.u.)^3
     number of atoms/cell      =            5
     number of atomic types    =            3
     number of electrons       =        40.00
     number of Kohn-Sham states=           24
     kinetic-energy cutoff     =      50.0000  Ry
     charge density cutoff     =     400.0000  Ry
     Exchange-correlation      =  SLA  PW   PBE  PBE ( 1  4  3  4 0 0)

     celldm(1)=   7.523434  celldm(2)=   0.000000  celldm(3)=   0.000000
     celldm(4)=   0.000000  celldm(5)=   0.000000  celldm(6)=   0.000000

     crystal axes: (cart. coord. in units of alat)
               a(1) = (   1.000000   0.000000   0.000000 )  
               a(2) = (   0.000000   1.000000   0.000000 )  
               a(3) = (   0.000000   0.000000   1.000000 )  

     reciprocal axes: (cart. coord. in units 2 pi/alat)
               b(1) = (  1.000000  0.000000  0.000000 )  
               b(2) = (  0.000000  1.000000  0.000000 )  
               b(3) = (  0.000000  0.000000  1.000000 )  


     PseudoPot. # 1 for O  read from file:
     ../../PSP_DIR/O.pbe-rrkjus.UPF
     MD5 check sum: 390ba29e75625707450f3bd3f0eb6be9
     Pseudo is Ultrasoft, Zval =  6.0
     Generated by new atomic code, or converted to UPF format
     Using radial grid of 1269 points,  4 beta functions with: 
                l(1) =   0
                l(2) =   0
                l(3) =   1
                l(4) =   1
     Q(r) pseudized with 0 coefficients 


     PseudoPot. # 2 for Ti read from file:
     ../../PSP_DIR/Ti.pbe-sp-van_ak.UPF
     MD5 check sum: 8e4df49b7f0d34bbd5052bf3f5ea0213
     Pseudo is Ultrasoft, Zval = 12.0
     Generated by new atomic code, or converted to UPF format
     Using radial grid of  851 points,  6 beta functions with: 
                l(1) =   0
                l(2) =   0
                l(3) =   1
                l(4) =   1
                l(5) =   2
                l(6) =   2
     Q(r) pseudized with  8 coefficients,  rinner =    1.000   1.000   1.000
                                                       1.000   1.000

     PseudoPot. # 3 for Ba read from file:
     ../../PSP_DIR/Ba.pbe-nsp-van.UPF
     MD5 check sum: a011de417d3466d8e94df216395bc359
     Pseudo is Ultrasoft + core correction, Zval = 10.0
     Generated by new atomic code, or converted to UPF format
     Using radial grid of  907 points,  6 beta functions with: 
                l(1) =   0
                l(2) =   0
                l(3) =   1
                l(4) =   1
                l(5) =   2
                l(6) =   2
     Q(r) pseudized with  6 coefficients,  rinner =    1.200   1.200   1.200
                                                       1.200   1.200

     atomic species   valence    mass     pseudopotential
        O              6.00    15.99000     O ( 1.00)
        Ti            12.00    47.88000     Ti( 1.00)
        Ba            10.00   137.33000     Ba( 1.00)

     48 Sym. Ops., with inversion, found



   Cartesian axes

     site n.     atom                  positions (alat units)
         1           Ba  tau(   1) = (   0.0000000   0.0000000   0.0000000  )
         2           Ti  tau(   2) = (   0.5000000   0.5000000   0.5000000  )
         3           O   tau(   3) = (   0.0000000   0.5000000   0.5000000  )
         4           O   tau(   4) = (   0.5000000   0.0000000   0.5000000  )
         5           O   tau(   5) = (   0.5000000   0.5000000   0.0000000  )

     number of k points=    36
                       cart. coord. in units 2pi/alat
        k(    1) = (   0.0833333   0.0833333   0.0833333), wk =   0.0740741
        k(    2) = (   0.0833333   0.0833333  -0.4166667), wk =   0.0000000
        k(    3) = (   0.0833333   0.0833333   0.2500000), wk =   0.0740741
        k(    4) = (   0.0833333   0.0833333  -0.2500000), wk =   0.0000000
        k(    5) = (   0.0833333   0.0833333   0.4166667), wk =   0.0740741
        k(    6) = (   0.0833333   0.0833333  -0.0833333), wk =   0.0000000
        k(    7) = (   0.0833333   0.2500000   0.2500000), wk =   0.1481481
        k(    8) = (   0.0833333   0.2500000  -0.2500000), wk =   0.0000000
        k(    9) = (   0.0833333   0.2500000   0.4166667), wk =   0.1481481
        k(   10) = (   0.0833333   0.2500000  -0.0833333), wk =   0.0000000
        k(   11) = (   0.0833333   0.4166667   0.4166667), wk =   0.1481481
        k(   12) = (   0.0833333   0.4166667  -0.0833333), wk =   0.0000000
        k(   13) = (   0.2500000   0.2500000   0.2500000), wk =   0.0740741
        k(   14) = (   0.2500000   0.2500000  -0.2500000), wk =   0.0000000
        k(   15) = (   0.2500000   0.2500000   0.4166667), wk =   0.0740741
        k(   16) = (   0.2500000   0.2500000  -0.0833333), wk =   0.0000000
        k(   17) = (   0.2500000   0.4166667   0.4166667), wk =   0.1481481
        k(   18) = (   0.2500000   0.4166667  -0.0833333), wk =   0.0000000
        k(   19) = (   0.4166667   0.4166667   0.4166667), wk =   0.0740741
        k(   20) = (   0.4166667   0.4166667  -0.0833333), wk =   0.0000000
        k(   21) = (   0.0833333   0.2500000   0.0833333), wk =   0.1481481
        k(   22) = (   0.0833333   0.2500000  -0.4166667), wk =   0.0000000
        k(   23) = (   0.0833333   0.4166667   0.0833333), wk =   0.1481481
        k(   24) = (   0.0833333   0.4166667  -0.4166667), wk =   0.0000000
        k(   25) = (   0.2500000   0.2500000   0.0833333), wk =   0.0740741
        k(   26) = (   0.2500000   0.2500000  -0.4166667), wk =   0.0000000
        k(   27) = (   0.2500000   0.4166667   0.0833333), wk =   0.1481481
        k(   28) = (   0.2500000   0.4166667  -0.4166667), wk =   0.0000000
        k(   29) = (   0.4166667  -0.0833333  -0.2500000), wk =   0.1481481
        k(   30) = (   0.4166667  -0.0833333  -0.7500000), wk =   0.0000000
        k(   31) = (   0.4166667   0.4166667   0.0833333), wk =   0.0740741
        k(   32) = (   0.4166667   0.4166667  -0.4166667), wk =   0.0000000
        k(   33) = (   0.2500000   0.4166667   0.2500000), wk =   0.1481481
        k(   34) = (   0.2500000   0.4166667  -0.2500000), wk =   0.0000000
        k(   35) = (   0.4166667   0.4166667   0.2500000), wk =   0.0740741
        k(   36) = (   0.4166667   0.4166667  -0.2500000), wk =   0.0000000

     Dense  grid:    57555 G-vectors     FFT dimensions: (  48,  48,  48)

     Smooth grid:    20341 G-vectors     FFT dimensions: (  36,  36,  36)

     Estimated max dynamical RAM per process >       1.98MB

     Estimated total allocated dynamical RAM >      55.33MB

     The potential is recalculated from file :
     ./_ph0/bto.save/charge-density.dat

     Starting wfc are   35 atomic wfcs

     Band Structure Calculation
     Davidson diagonalization with overlap

     ethr =  2.50E-11,  avg # of iterations = 18.2

     total cpu time spent up to now is        8.7 secs

     End of band structure calculation

          k = 0.0833 0.0833 0.0833 (  2538 PWs)   bands (ev):

   -46.0512 -22.2870 -22.2867 -22.2867 -14.0069  -6.3570  -5.6899  -5.6899
     0.7769   0.7769   0.9031   7.8909   8.0846   8.0846   8.9205   8.9205
     9.2858   9.8627  10.1670  10.1670  12.5414  12.5918  12.5918  14.8510

          k = 0.0833 0.0833-0.4167 (  2538 PWs)   bands (ev):

   -46.0502 -22.3350 -22.2849 -22.2847 -13.8967  -6.5226  -5.6617  -5.4313
     0.8751   0.9767   1.1484   6.5231   7.6780   7.7548   7.9702   8.3112
     9.0324   9.1457   9.5456   9.6560  12.6485  13.9545  13.9614  14.8445

          k = 0.0833 0.0833 0.2500 (  2544 PWs)   bands (ev):

   -46.0507 -22.3110 -22.2859 -22.2857 -13.9525  -6.4026  -5.6758  -5.6076
     0.8255   0.8307   1.0754   7.2187   7.8562   7.9486   8.5052   8.5127
     9.2053   9.2338   9.8822   9.8894  12.6093  13.2921  13.2968  14.8500

          k = 0.0833 0.0833-0.2500 (  2544 PWs)   bands (ev):

   -46.0507 -22.3110 -22.2859 -22.2857 -13.9525  -6.4026  -5.6758  -5.6076
     0.8255   0.8307   1.0754   7.2187   7.8562   7.9486   8.5052   8.5127
     9.2053   9.2338   9.8822   9.8894  12.6093  13.2921  13.2968  14.8500

          k = 0.0833 0.0833 0.4167 (  2538 PWs)   bands (ev):

   -46.0502 -22.3350 -22.2849 -22.2847 -13.8967  -6.5226  -5.6617  -5.4313
     0.8751   0.9767   1.1484   6.5231   7.6780   7.7548   7.9702   8.3112
     9.0324   9.1457   9.5456   9.6560  12.6485  13.9545  13.9614  14.8445

          k = 0.0833 0.0833-0.0833 (  2538 PWs)   bands (ev):

   -46.0512 -22.2870 -22.2867 -22.2867 -14.0069  -6.3570  -5.6899  -5.6899
     0.7769   0.7769   0.9031   7.8909   8.0846   8.0846   8.9205   8.9205
     9.2858   9.8627  10.1670  10.1670  12.5414  12.5918  12.5918  14.8510

          k = 0.0833 0.2500 0.2500 (  2554 PWs)   bands (ev):

   -46.0502 -22.3101 -22.3093 -22.2849 -13.9066  -6.3093  -5.6550  -5.6080
     0.7375   0.8413   1.1673   6.9346   7.4267   7.7009   8.0192   8.3156
     8.8350   9.4599   9.5363   9.9692  13.2673  13.3918  13.6354  15.3373

          k = 0.0833 0.2500-0.2500 (  2554 PWs)   bands (ev):

   -46.0502 -22.3101 -22.3093 -22.2849 -13.9066  -6.3093  -5.6550  -5.6080
     0.7375   0.8413   1.1673   6.9346   7.4267   7.7009   8.0192   8.3156
     8.8350   9.4599   9.5363   9.9692  13.2673  13.3918  13.6354  15.3373

          k = 0.0833 0.2500 0.4167 (  2541 PWs)   bands (ev):

   -46.0498 -22.3335 -22.3085 -22.2839 -13.8597  -6.3037  -5.6234  -5.5171
     0.7478   0.8935   1.1088   6.4475   7.1197   7.3057   7.7905   8.1534
     8.9128   9.2683   9.4421   9.9647  13.3619  13.9864  14.1207  15.4286

          k = 0.0833 0.2500-0.0833 (  2544 PWs)   bands (ev):

   -46.0507 -22.3110 -22.2859 -22.2857 -13.9525  -6.4026  -5.6758  -5.6076
     0.8255   0.8307   1.0754   7.2187   7.8562   7.9486   8.5052   8.5127
     9.2053   9.2338   9.8822   9.8894  12.6093  13.2921  13.2968  14.8500

          k = 0.0833 0.4167 0.4167 (  2540 PWs)   bands (ev):

   -46.0493 -22.3321 -22.3319 -22.2830 -13.8219  -6.0708  -5.6163  -5.5758
     0.6919   0.7415   1.0932   6.2760   6.6906   6.6951   7.8398   7.8943
     8.6364   9.4824   9.6199  10.3135  13.9963  14.0281  14.4155  15.6090

          k = 0.0833 0.4167-0.0833 (  2538 PWs)   bands (ev):

   -46.0502 -22.3350 -22.2849 -22.2847 -13.8967  -6.5226  -5.6617  -5.4313
     0.8751   0.9767   1.1484   6.5231   7.6780   7.7548   7.9702   8.3112
     9.0324   9.1457   9.5456   9.6560  12.6485  13.9545  13.9614  14.8445

          k = 0.2500 0.2500 0.2500 (  2542 PWs)   bands (ev):

   -46.0498 -22.3093 -22.3082 -22.3082 -13.8663  -6.1562  -5.6114  -5.6114
     0.6041   0.6041   1.2162   6.7411   7.3975   7.3975   7.9331   8.1474
     8.1474   9.7638   9.7638   9.7677  13.7105  13.7346  13.7346  16.5347

          k = 0.2500 0.2500-0.2500 (  2542 PWs)   bands (ev):

   -46.0498 -22.3093 -22.3082 -22.3082 -13.8663  -6.1562  -5.6114  -5.6114
     0.6041   0.6041   1.2162   6.7411   7.3975   7.3975   7.9331   8.1474
     8.1474   9.7638   9.7638   9.7677  13.7105  13.7346  13.7346  16.5347

          k = 0.2500 0.2500 0.4167 (  2534 PWs)   bands (ev):

   -46.0493 -22.3321 -22.3077 -22.3072 -13.8252  -6.0766  -5.5666  -5.5317
     0.4706   0.6126   1.0011   6.4158   7.1058   7.3761   7.4303   8.0956
     8.2928   9.5704   9.8793   9.8920  13.8114  14.1894  14.2201  16.5027

          k = 0.2500 0.2500-0.0833 (  2554 PWs)   bands (ev):

   -46.0502 -22.3101 -22.3093 -22.2849 -13.9066  -6.3093  -5.6550  -5.6080
     0.7375   0.8413   1.1673   6.9346   7.4267   7.7009   8.0192   8.3156
     8.8350   9.4599   9.5363   9.9692  13.2673  13.3918  13.6354  15.3373

          k = 0.2500 0.4167 0.4167 (  2527 PWs)   bands (ev):

   -46.0488 -22.3309 -22.3307 -22.3064 -13.7901  -5.8325  -5.5432  -5.5192
     0.3649   0.3933   0.6936   6.2646   6.6946   7.2869   7.4536   8.0566
     8.1257   9.8050   9.8953  10.2863  14.2849  14.2982  14.5124  16.8519

          k = 0.2500 0.4167-0.0833 (  2541 PWs)   bands (ev):

   -46.0498 -22.3335 -22.3085 -22.2839 -13.8597  -6.3037  -5.6234  -5.5171
     0.7478   0.8935   1.1088   6.4475   7.1197   7.3057   7.7905   8.1534
     8.9128   9.2683   9.4421   9.9647  13.3619  13.9864  14.1207  15.4286

          k = 0.4167 0.4167 0.4167 (  2515 PWs)   bands (ev):

   -46.0484 -22.3297 -22.3295 -22.3295 -13.7579  -5.5740  -5.4658  -5.4658
     0.1104   0.1104   0.2631   6.1125   6.7006   6.7006   7.8932   8.1388
     8.1388  10.2228  10.2228  10.3006  14.6170  14.6170  14.6201  17.7040

          k = 0.4167 0.4167-0.0833 (  2540 PWs)   bands (ev):

   -46.0493 -22.3321 -22.3319 -22.2830 -13.8219  -6.0708  -5.6163  -5.5758
     0.6919   0.7415   1.0932   6.2760   6.6906   6.6951   7.8398   7.8943
     8.6364   9.4824   9.6199  10.3135  13.9963  14.0281  14.4155  15.6090

          k = 0.0833 0.2500 0.0833 (  2544 PWs)   bands (ev):

   -46.0507 -22.3110 -22.2859 -22.2857 -13.9525  -6.4026  -5.6758  -5.6076
     0.8255   0.8307   1.0754   7.2187   7.8562   7.9486   8.5052   8.5127
     9.2053   9.2338   9.8822   9.8894  12.6093  13.2921  13.2968  14.8500

          k = 0.0833 0.2500-0.4167 (  2541 PWs)   bands (ev):

   -46.0498 -22.3335 -22.3085 -22.2839 -13.8597  -6.3037  -5.6234  -5.5171
     0.7478   0.8935   1.1088   6.4475   7.1197   7.3057   7.7905   8.1534
     8.9128   9.2683   9.4421   9.9647  13.3619  13.9864  14.1207  15.4286

          k = 0.0833 0.4167 0.0833 (  2538 PWs)   bands (ev):

   -46.0502 -22.3350 -22.2849 -22.2847 -13.8967  -6.5226  -5.6617  -5.4313
     0.8751   0.9767   1.1484   6.5231   7.6780   7.7548   7.9702   8.3112
     9.0324   9.1457   9.5456   9.6560  12.6485  13.9545  13.9614  14.8445

          k = 0.0833 0.4167-0.4167 (  2540 PWs)   bands (ev):

   -46.0493 -22.3321 -22.3319 -22.2830 -13.8219  -6.0708  -5.6163  -5.5758
[...]

   -46.0493 -22.3321 -22.3319 -22.2830 -13.8219  -6.0708  -5.6163  -5.5758
     0.6919   0.7415   1.0932   6.2760   6.6906   6.6951   7.8398   7.8943
     8.6364   9.4824   9.6199  10.3135  13.9963  14.0281  14.4155  15.6090

          k =-0.4167-0.0833-0.0833 (  2538 PWs)   bands (ev):

   -46.0502 -22.3350 -22.2849 -22.2847 -13.8967  -6.5226  -5.6617  -5.4313
     0.8751   0.9767   1.1484   6.5231   7.6780   7.7548   7.9702   8.3112
     9.0324   9.1457   9.5456   9.6560  12.6485  13.9545  13.9614  14.8445

          k = 0.2500 0.2500 0.2500 (  2542 PWs)   bands (ev):

   -46.0498 -22.3093 -22.3082 -22.3082 -13.8663  -6.1562  -5.6114  -5.6114
     0.6041   0.6041   1.2162   6.7411   7.3975   7.3975   7.9331   8.1474
     8.1474   9.7638   9.7638   9.7677  13.7105  13.7346  13.7346  16.5347

          k =-0.2500-0.2500-0.2500 (  2542 PWs)   bands (ev):

   -46.0498 -22.3093 -22.3082 -22.3082 -13.8663  -6.1562  -5.6114  -5.6114
     0.6041   0.6041   1.2162   6.7411   7.3975   7.3975   7.9331   8.1474
     8.1474   9.7638   9.7638   9.7677  13.7105  13.7346  13.7346  16.5347

          k = 0.2500 0.2500 0.4167 (  2534 PWs)   bands (ev):

   -46.0493 -22.3321 -22.3077 -22.3072 -13.8252  -6.0766  -5.5666  -5.5317
     0.4706   0.6126   1.0011   6.4158   7.1058   7.3761   7.4303   8.0956
     8.2928   9.5704   9.8793   9.8920  13.8114  14.1894  14.2201  16.5027

          k =-0.2500-0.2500-0.0833 (  2554 PWs)   bands (ev):

   -46.0502 -22.3101 -22.3093 -22.2849 -13.9066  -6.3093  -5.6550  -5.6080
     0.7375   0.8413   1.1673   6.9346   7.4267   7.7009   8.0192   8.3156
     8.8350   9.4599   9.5363   9.9692  13.2673  13.3918  13.6354  15.3373

          k = 0.2500 0.4167 0.4167 (  2527 PWs)   bands (ev):

   -46.0488 -22.3309 -22.3307 -22.3064 -13.7901  -5.8325  -5.5432  -5.5192
     0.3649   0.3933   0.6936   6.2646   6.6946   7.2869   7.4536   8.0566
     8.1257   9.8050   9.8953  10.2863  14.2849  14.2982  14.5124  16.8519

          k =-0.2500-0.0833-0.0833 (  2544 PWs)   bands (ev):

   -46.0507 -22.3110 -22.2859 -22.2857 -13.9525  -6.4026  -5.6758  -5.6076
     0.8255   0.8307   1.0754   7.2187   7.8562   7.9486   8.5052   8.5127
     9.2053   9.2338   9.8822   9.8894  12.6093  13.2921  13.2968  14.8500

          k = 0.4167 0.4167 0.4167 (  2515 PWs)   bands (ev):

   -46.0484 -22.3297 -22.3295 -22.3295 -13.7579  -5.5740  -5.4658  -5.4658
     0.1104   0.1104   0.2631   6.1125   6.7006   6.7006   7.8932   8.1388
     8.1388  10.2228  10.2228  10.3006  14.6170  14.6170  14.6201  17.7040

          k =-0.0833-0.0833-0.0833 (  2538 PWs)   bands (ev):

   -46.0512 -22.2870 -22.2867 -22.2867 -14.0069  -6.3570  -5.6899  -5.6899
     0.7769   0.7769   0.9031   7.8909   8.0846   8.0846   8.9205   8.9205
     9.2858   9.8627  10.1670  10.1670  12.5414  12.5918  12.5918  14.8510

     highest occupied, lowest unoccupied level (ev):    10.3135   12.5414

     Writing output data file bto.save

                                                                                

     bravais-lattice index     =            1
     lattice parameter (alat)  =       7.5234  a.u.
     unit-cell volume          =     425.8418 (a.u.)^3
     number of atoms/cell      =            5
     number of atomic types    =            3
     kinetic-energy cut-off    =      50.0000  Ry
     charge density cut-off    =     400.0000  Ry
     convergence threshold     =      1.0E-12
     beta                      =       0.7000
     number of iterations used =            4
     Exchange-correlation      =  SLA  PW   PBE  PBE ( 1  4  3  4 0 0)


     celldm(1)=    7.52343  celldm(2)=    0.00000  celldm(3)=    0.00000
     celldm(4)=    0.00000  celldm(5)=    0.00000  celldm(6)=    0.00000

     crystal axes: (cart. coord. in units of alat)
               a(1) = (  1.0000  0.0000  0.0000 )  
               a(2) = (  0.0000  1.0000  0.0000 )  
               a(3) = (  0.0000  0.0000  1.0000 )  

     reciprocal axes: (cart. coord. in units 2 pi/alat)
               b(1) = (  1.0000  0.0000  0.0000 )  
               b(2) = (  0.0000  1.0000  0.0000 )  
               b(3) = (  0.0000  0.0000  1.0000 )  


     Atoms inside the unit cell: 

     Cartesian axes

     site n.  atom      mass           positions (alat units)
        1     Ba 137.3300   tau(    1) = (    0.00000    0.00000    0.00000  )
        2     Ti  47.8800   tau(    2) = (    0.50000    0.50000    0.50000  )
        3     O   15.9900   tau(    3) = (    0.00000    0.50000    0.50000  )
        4     O   15.9900   tau(    4) = (    0.50000    0.00000    0.50000  )
        5     O   15.9900   tau(    5) = (    0.50000    0.50000    0.00000  )

     Computing dynamical matrix for 
                    q = (  -0.5000000  -0.5000000  -0.5000000 )
 
     49 Sym.Ops. (with q -> -q+G )


     G cutoff =  573.4987  (   2058 G-vectors)     FFT grid: ( 48, 48, 48)
     G cutoff =  286.7494  (    730 G-vectors)  smooth grid: ( 36, 36, 36)
     number of k points=    20

     PseudoPot. # 1 for O  read from file:
     ../../PSP_DIR/O.pbe-rrkjus.UPF
     MD5 check sum: 390ba29e75625707450f3bd3f0eb6be9
     Pseudo is Ultrasoft, Zval =  6.0
     Generated by new atomic code, or converted to UPF format
     Using radial grid of 1269 points,  4 beta functions with: 
                l(1) =   0
                l(2) =   0
                l(3) =   1
                l(4) =   1
     Q(r) pseudized with 0 coefficients 


     PseudoPot. # 2 for Ti read from file:
     ../../PSP_DIR/Ti.pbe-sp-van_ak.UPF
     MD5 check sum: 8e4df49b7f0d34bbd5052bf3f5ea0213
     Pseudo is Ultrasoft, Zval = 12.0
     Generated by new atomic code, or converted to UPF format
     Using radial grid of  851 points,  6 beta functions with: 
                l(1) =   0
                l(2) =   0
                l(3) =   1
                l(4) =   1
                l(5) =   2
                l(6) =   2
     Q(r) pseudized with  8 coefficients,  rinner =    1.000   1.000   1.000
                                                       1.000   1.000

     PseudoPot. # 3 for Ba read from file:
     ../../PSP_DIR/Ba.pbe-nsp-van.UPF
     MD5 check sum: a011de417d3466d8e94df216395bc359
     Pseudo is Ultrasoft + core correction, Zval = 10.0
     Generated by new atomic code, or converted to UPF format
     Using radial grid of  907 points,  6 beta functions with: 
                l(1) =   0
                l(2) =   0
                l(3) =   1
                l(4) =   1
                l(5) =   2
                l(6) =   2
     Q(r) pseudized with  6 coefficients,  rinner =    1.200   1.200   1.200
                                                       1.200   1.200

     Mode symmetry, O_h (m-3m)  point group:


     Atomic displacements:
     There are   6 irreducible representations

     Representation     1      3 modes -T_2g G_25' G_5+  To be done

     Representation     2      1 modes -A_2u G_2'  G_2-  To be done

     Representation     3      2 modes -E_u  G_12' G_3-  To be done

     Representation     4      3 modes -T_1u G_15  G_4-  To be done

     Representation     5      3 modes -T_1u G_15  G_4-  To be done

     Representation     6      3 modes -T_2u G_25  G_5-  To be done



     Alpha used in Ewald sum =   2.8000
     PHONON       : 32m58.97s CPU    34m34.12s WALL



     Representation #  1 modes #   1  2  3

     Self-consistent Calculation

      iter #   1 total cpu time :  2076.5 secs   av.it.:  10.4
      thresh= 1.000E-02 alpha_mix =  0.700 |ddv_scf|^2 =  2.536E-06

      iter #   2 total cpu time :  2078.8 secs   av.it.:  18.6
      thresh= 1.593E-04 alpha_mix =  0.700 |ddv_scf|^2 =  6.285E-06

      iter #   3 total cpu time :  2081.1 secs   av.it.:  17.2
      thresh= 2.507E-04 alpha_mix =  0.700 |ddv_scf|^2 =  3.218E-07

      iter #   4 total cpu time :  2083.6 secs   av.it.:  17.3
      thresh= 5.672E-05 alpha_mix =  0.700 |ddv_scf|^2 =  6.608E-10

      iter #   5 total cpu time :  2086.4 secs   av.it.:  17.3
      thresh= 2.571E-06 alpha_mix =  0.700 |ddv_scf|^2 =  6.956E-12

      iter #   6 total cpu time :  2088.8 secs   av.it.:  17.4
      thresh= 2.637E-07 alpha_mix =  0.700 |ddv_scf|^2 =  7.149E-14

     End of self-consistent calculation

     Convergence has been achieved 


     Representation #  2 mode #   4

     Self-consistent Calculation

      iter #   1 total cpu time :  2089.6 secs   av.it.:   8.8
      thresh= 1.000E-02 alpha_mix =  0.700 |ddv_scf|^2 =  5.142E-05

      iter #   2 total cpu time :  2090.3 secs   av.it.:  15.2
      thresh= 7.171E-04 alpha_mix =  0.700 |ddv_scf|^2 =  4.506E-04

      iter #   3 total cpu time :  2091.3 secs   av.it.:  13.2
      thresh= 2.123E-03 alpha_mix =  0.700 |ddv_scf|^2 =  2.602E-06

      iter #   4 total cpu time :  2092.0 secs   av.it.:  13.3
      thresh= 1.613E-04 alpha_mix =  0.700 |ddv_scf|^2 =  7.125E-09

      iter #   5 total cpu time :  2092.7 secs   av.it.:  13.5
      thresh= 8.441E-06 alpha_mix =  0.700 |ddv_scf|^2 =  7.771E-12

      iter #   6 total cpu time :  2093.5 secs   av.it.:  13.8
      thresh= 2.788E-07 alpha_mix =  0.700 |ddv_scf|^2 =  7.188E-13

     End of self-consistent calculation

     Convergence has been achieved 


     Representation #  3 modes #   5  6

     Self-consistent Calculation

      iter #   1 total cpu time :  2094.9 secs   av.it.:   8.6
      thresh= 1.000E-02 alpha_mix =  0.700 |ddv_scf|^2 =  2.376E-07

      iter #   2 total cpu time :  2096.3 secs   av.it.:  17.2
      thresh= 4.874E-05 alpha_mix =  0.700 |ddv_scf|^2 =  8.323E-10

      iter #   3 total cpu time :  2098.0 secs   av.it.:  17.1
      thresh= 2.885E-06 alpha_mix =  0.700 |ddv_scf|^2 =  2.301E-11

      iter #   4 total cpu time :  2099.3 secs   av.it.:  15.6
      thresh= 4.797E-07 alpha_mix =  0.700 |ddv_scf|^2 =  8.064E-14

     End of self-consistent calculation

     Convergence has been achieved 


     Representation #  4 modes #   7  8  9

     Self-consistent Calculation

      iter #   1 total cpu time :  2101.1 secs   av.it.:   8.9
      thresh= 1.000E-02 alpha_mix =  0.700 |ddv_scf|^2 =  9.178E-07

      iter #   2 total cpu time :  2103.3 secs   av.it.:  17.9
      thresh= 9.580E-05 alpha_mix =  0.700 |ddv_scf|^2 =  3.395E-07

      iter #   3 total cpu time :  2106.0 secs   av.it.:  16.9
      thresh= 5.827E-05 alpha_mix =  0.700 |ddv_scf|^2 =  5.019E-10

      iter #   4 total cpu time :  2108.3 secs   av.it.:  16.8
      thresh= 2.240E-06 alpha_mix =  0.700 |ddv_scf|^2 =  4.724E-12

      iter #   5 total cpu time :  2110.7 secs   av.it.:  16.8
      thresh= 2.173E-07 alpha_mix =  0.700 |ddv_scf|^2 =  7.344E-14

     End of self-consistent calculation

     Convergence has been achieved 


     Representation #  5 modes #  10 11 12

     Self-consistent Calculation

      iter #   1 total cpu time :  2112.5 secs   av.it.:   8.0
      thresh= 1.000E-02 alpha_mix =  0.700 |ddv_scf|^2 =  4.656E-07

      iter #   2 total cpu time :  2115.0 secs   av.it.:  17.5
      thresh= 6.823E-05 alpha_mix =  0.700 |ddv_scf|^2 =  1.883E-07

      iter #   3 total cpu time :  2117.4 secs   av.it.:  16.9
      thresh= 4.339E-05 alpha_mix =  0.700 |ddv_scf|^2 =  2.885E-10

      iter #   4 total cpu time :  2119.6 secs   av.it.:  16.7
      thresh= 1.698E-06 alpha_mix =  0.700 |ddv_scf|^2 =  4.809E-12

      iter #   5 total cpu time :  2122.5 secs   av.it.:  17.3
      thresh= 2.193E-07 alpha_mix =  0.700 |ddv_scf|^2 =  3.112E-14

     End of self-consistent calculation

     Convergence has been achieved 


     Representation #  6 modes #  13 14 15

     Self-consistent Calculation

      iter #   1 total cpu time :  2124.2 secs   av.it.:   7.9
      thresh= 1.000E-02 alpha_mix =  0.700 |ddv_scf|^2 =  9.193E-08

      iter #   2 total cpu time :  2127.0 secs   av.it.:  17.9
      thresh= 3.032E-05 alpha_mix =  0.700 |ddv_scf|^2 =  2.228E-10

      iter #   3 total cpu time :  2129.4 secs   av.it.:  17.6
      thresh= 1.492E-06 alpha_mix =  0.700 |ddv_scf|^2 =  1.178E-11

      iter #   4 total cpu time :  2131.5 secs   av.it.:  15.6
      thresh= 3.432E-07 alpha_mix =  0.700 |ddv_scf|^2 =  1.308E-14

     End of self-consistent calculation

     Convergence has been achieved 
 
     Number of q in the star =    1
     List of q in the star:
          1  -0.500000000  -0.500000000  -0.500000000

     Diagonalizing the dynamical matrix

     q = (   -0.500000000  -0.500000000  -0.500000000 ) 

 **************************************************************************
     freq (    1) =       3.424145 [THz] =     114.217185 [cm-1]
     freq (    2) =       3.424145 [THz] =     114.217185 [cm-1]
     freq (    3) =       3.424145 [THz] =     114.217185 [cm-1]
     freq (    4) =       5.767423 [THz] =     192.380526 [cm-1]
     freq (    5) =       5.767423 [THz] =     192.380526 [cm-1]
     freq (    6) =       5.767423 [THz] =     192.380526 [cm-1]
     freq (    7) =      11.702766 [THz] =     390.362240 [cm-1]
     freq (    8) =      11.702766 [THz] =     390.362240 [cm-1]
     freq (    9) =      12.127257 [THz] =     404.521735 [cm-1]
     freq (   10) =      12.127257 [THz] =     404.521735 [cm-1]
     freq (   11) =      12.127257 [THz] =     404.521735 [cm-1]
     freq (   12) =      12.880140 [THz] =     429.635223 [cm-1]
     freq (   13) =      12.880140 [THz] =     429.635223 [cm-1]
     freq (   14) =      12.880140 [THz] =     429.635223 [cm-1]
     freq (   15) =      22.701876 [THz] =     757.253069 [cm-1]
 **************************************************************************

     Mode symmetry, O_h (m-3m)  point group:

     freq (  1 -  3) =        114.2  [cm-1]   --> T_1u G_15  G_4-    
     freq (  4 -  6) =        192.4  [cm-1]   --> T_2u G_25  G_5-    
     freq (  7 -  8) =        390.4  [cm-1]   --> E_u  G_12' G_3-    
     freq (  9 - 11) =        404.5  [cm-1]   --> T_2g G_25' G_5+    
     freq ( 12 - 14) =        429.6  [cm-1]   --> T_1u G_15  G_4-    
     freq ( 15 - 15) =        757.3  [cm-1]   --> A_2u G_2'  G_2-    
 
     init_run     :      0.83s CPU      0.92s WALL (       9 calls)
     electrons    :     52.06s CPU     53.42s WALL (       9 calls)

     Called by init_run:
     wfcinit      :      0.00s CPU      0.00s WALL (       9 calls)
     potinit      :      0.08s CPU      0.09s WALL (       9 calls)

     Called by electrons:
     c_bands      :     52.06s CPU     53.42s WALL (       9 calls)
     v_of_rho     :      0.03s CPU      0.04s WALL (      10 calls)
     newd         :      0.12s CPU      0.13s WALL (      10 calls)

     Called by c_bands:
     init_us_2    :      1.89s CPU      1.79s WALL (   38264 calls)
     cegterg      :     47.07s CPU     48.16s WALL (     773 calls)

     Called by sum_band:

     Called by *egterg:
     h_psi        :   1323.82s CPU   1376.87s WALL (  886068 calls)
     s_psi        :     60.59s CPU     58.28s WALL ( 1794847 calls)
     g_psi        :      0.07s CPU      0.12s WALL (   13002 calls)
     cdiaghg      :     19.96s CPU     20.08s WALL (   13710 calls)

     Called by h_psi:
     h_psi:pot    :   1322.43s CPU   1373.05s WALL (  886068 calls)
     h_psi:calbec :     74.11s CPU     72.99s WALL (  886068 calls)
     vloc_psi     :   1220.04s CPU   1267.60s WALL (  886068 calls)
     add_vuspsi   :     27.19s CPU     29.40s WALL (  886068 calls)

     General routines
     calbec       :    162.62s CPU    163.25s WALL ( 1871597 calls)
     fft          :      5.46s CPU      5.64s WALL (   19894 calls)
     ffts         :      0.96s CPU      1.03s WALL (    9464 calls)
     fftw         :   1426.77s CPU   1453.99s WALL (27041624 calls)
     interpolate  :      0.94s CPU      1.01s WALL (    2084 calls)
     davcio       :      4.60s CPU     21.82s WALL (  187780 calls)
 
     Parallel routines
     fft_scatter  :    980.14s CPU    969.02s WALL (27070982 calls)
 
     PHONON       : 33m53.63s CPU    35m31.72s WALL

     INITIALIZATION: 
     phq_setup    :      0.15s CPU      0.16s WALL (      10 calls)
     phq_init     :     16.09s CPU     16.75s WALL (      10 calls)
 
     phq_init     :     16.09s CPU     16.75s WALL (      10 calls)
     set_drhoc    :      0.41s CPU      0.42s WALL (      30 calls)
     init_vloc    :      0.06s CPU      0.06s WALL (      10 calls)
     init_us_1    :      0.42s CPU      0.48s WALL (      10 calls)
     newd         :      0.12s CPU      0.13s WALL (      10 calls)
     dvanqq       :      1.56s CPU      1.57s WALL (      10 calls)
     drho         :     11.56s CPU     12.12s WALL (      10 calls)
 
     DYNAMICAL MATRIX:
     dynmat0      :      2.07s CPU      2.14s WALL (      10 calls)
     phqscf       :   1947.74s CPU   2041.65s WALL (      10 calls)
     dynmatrix    :      0.02s CPU      0.06s WALL (      10 calls)
 
     phqscf       :   1947.74s CPU   2041.65s WALL (      10 calls)
     solve_linter :   1931.04s CPU   2023.93s WALL (     108 calls)
     drhodv       :     15.48s CPU     16.11s WALL (     108 calls)
 
     dynmat0      :      2.07s CPU      2.14s WALL (      10 calls)
     dynmat_us    :      1.72s CPU      1.76s WALL (      10 calls)
     d2ionq       :      0.03s CPU      0.03s WALL (      10 calls)
     dynmatcc     :      0.31s CPU      0.31s WALL (      10 calls)
 
     dynmat_us    :      1.72s CPU      1.76s WALL (      10 calls)
     addusdynmat  :      0.00s CPU      0.00s WALL (      10 calls)
 
     phqscf       :   1947.74s CPU   2041.65s WALL (      10 calls)
     solve_linter :   1931.04s CPU   2023.93s WALL (     108 calls)
 
     solve_linter :   1931.04s CPU   2023.93s WALL (     108 calls)
     dvqpsi_us    :     25.18s CPU     26.02s WALL (    5610 calls)
     ortho        :     13.78s CPU     14.39s WALL (   37164 calls)
     cgsolve      :   1529.88s CPU   1590.62s WALL (   37164 calls)
     incdrhoscf   :    192.32s CPU    198.26s WALL (   37164 calls)
     addusddens   :     15.43s CPU     15.51s WALL (     822 calls)
     vpsifft      :     66.98s CPU     71.34s WALL (   31524 calls)
     dv_of_drho   :      1.67s CPU      1.72s WALL (     959 calls)
     mix_pot      :      4.63s CPU      9.63s WALL (     719 calls)
     psymdvscf    :     53.68s CPU     53.94s WALL (     714 calls)
     newdq        :     17.59s CPU     17.71s WALL (     719 calls)
     adddvscf     :      5.71s CPU      5.75s WALL (   31644 calls)
     drhodvus     :      0.06s CPU      0.09s WALL (     108 calls)
 
     dvqpsi_us    :     25.18s CPU     26.02s WALL (    5610 calls)
     dvqpsi_us_on :     11.86s CPU     11.99s WALL (    5610 calls)
 
     cgsolve      :   1529.88s CPU   1590.62s WALL (   37164 calls)
     ch_psi       :   1479.87s CPU   1542.60s WALL (  871585 calls)
 
     ch_psi       :   1479.87s CPU   1542.60s WALL (  871585 calls)
     h_psi        :   1323.82s CPU   1376.87s WALL (  886068 calls)
     last         :    145.11s CPU    152.86s WALL (  871585 calls)
 
     h_psi        :   1323.82s CPU   1376.87s WALL (  886068 calls)
     add_vuspsi   :     27.19s CPU     29.40s WALL (  886068 calls)
 
     incdrhoscf   :    192.32s CPU    198.26s WALL (   37164 calls)
     addusdbec    :      5.51s CPU      5.56s WALL (   42624 calls)
 
     drhodvus     :      0.06s CPU      0.09s WALL (     108 calls)
 
      General routines
     calbec       :    162.62s CPU    163.25s WALL ( 1871597 calls)
     fft          :      5.46s CPU      5.64s WALL (   19894 calls)
     ffts         :      0.96s CPU      1.03s WALL (    9464 calls)
     fftw         :   1426.77s CPU   1453.99s WALL (27041624 calls)
     davcio       :      4.60s CPU     21.82s WALL (  187780 calls)
     write_rec    :      1.36s CPU      4.06s WALL (     827 calls)
 
 
     PHONON       : 33m53.63s CPU    35m31.72s WALL

 
   This run was terminated on:  12:32:34  13Jan2018            

=------------------------------------------------------------------------------=
   JOB DONE.
=------------------------------------------------------------------------------=
