
     Program PWSCF v.6.1 (svn rev. 13369) starts on 30Dec2017 at 17: 0: 8 

     This program is part of the open-source Quantum ESPRESSO suite
     for quantum simulation of materials; please cite
         "P. Giannozzi et al., J. Phys.:Condens. Matter 21 395502 (2009);
          URL http://www.quantum-espresso.org", 
     in publications or presentations arising from this work. More details at
     http://www.quantum-espresso.org/quote

     Parallel version (MPI), running on    28 processors
     R & G space division:  proc/nbgrp/npool/nimage =      28
     Waiting for input...
     Reading input from standard input

     Current dimensions of program PWSCF are:
     Max number of different atomic species (ntypx) = 10
     Max number of k-points (npk) =  40000
     Max angular momentum in pseudopotentials (lmaxx) =  3

     Subspace diagonalization in iterative solution of the eigenvalue problem:
     a serial algorithm will be used

 
     Parallelization info
     --------------------
     sticks:   dense  smooth     PW     G-vecs:    dense   smooth      PW
     Min          74      37     10                 2570      907     138
     Max          75      38     11                 2573      912     143
     Sum        2085    1041    293                71999    25413    3911
 

     Title: 
     cubic BaTiO3 at 7.40 lattice parameter. xc=PZ                              


     bravais-lattice index     =            1
     lattice parameter (alat)  =       7.4000  a.u.
     unit-cell volume          =     405.2240 (a.u.)^3
     number of atoms/cell      =            5
     number of atomic types    =            3
     number of electrons       =        40.00
     number of Kohn-Sham states=           24
     kinetic-energy cutoff     =      60.0000  Ry
     charge density cutoff     =     480.0000  Ry
     convergence threshold     =      1.0E-12
     mixing beta               =       0.6000
     number of iterations used =            8  plain     mixing
     Exchange-correlation      = SLA-PZ-NOGX-NOGC ( 1  1  0  0 0 0)

     celldm(1)=   7.400000  celldm(2)=   0.000000  celldm(3)=   0.000000
     celldm(4)=   0.000000  celldm(5)=   0.000000  celldm(6)=   0.000000

     crystal axes: (cart. coord. in units of alat)
               a(1) = (   1.000000   0.000000   0.000000 )  
               a(2) = (   0.000000   1.000000   0.000000 )  
               a(3) = (   0.000000   0.000000   1.000000 )  

     reciprocal axes: (cart. coord. in units 2 pi/alat)
               b(1) = (  1.000000  0.000000  0.000000 )  
               b(2) = (  0.000000  1.000000  0.000000 )  
               b(3) = (  0.000000  0.000000  1.000000 )  


     PseudoPot. # 1 for O  read from file:
     ../../PSP_DIR/O.pz-van_ak.UPF
     MD5 check sum: d814fcb982dd9af4fc6452aae6bb9318
     Pseudo is Ultrasoft, Zval =  6.0
     Generated by new atomic code, or converted to UPF format
     Using radial grid of  737 points,  4 beta functions with: 
                l(1) =   0
                l(2) =   0
                l(3) =   1
                l(4) =   1
     Q(r) pseudized with  8 coefficients,  rinner =    0.800   0.800   0.800


     PseudoPot. # 2 for Ti read from file:
     ../../PSP_DIR/Ti.pz-sp-van_ak.UPF
     MD5 check sum: 545d0e6e05332b8871a8093f427cb0ca
     Pseudo is Ultrasoft, Zval = 12.0
     Generated by new atomic code, or converted to UPF format
     Using radial grid of  851 points,  6 beta functions with: 
                l(1) =   0
                l(2) =   0
                l(3) =   1
                l(4) =   1
                l(5) =   2
                l(6) =   2
     Q(r) pseudized with  8 coefficients,  rinner =    1.000   1.000   1.000
                                                       1.000   1.000

     PseudoPot. # 3 for Ba read from file:
     ../../PSP_DIR/Ba.pz-sp-hgh.UPF
     MD5 check sum: 155c4e4bbe33bd45901c985a874b3acf
     Pseudo is Norm-conserving, Zval = 10.0
     Generated in analytical, separable form
     Using radial grid of 1251 points,  6 beta functions with: 
                l(1) =   0
                l(2) =   0
                l(3) =   1
                l(4) =   1
                l(5) =   2
                l(6) =   3

     atomic species   valence    mass     pseudopotential
        O              6.00    15.99000     O ( 1.00)
        Ti            12.00    47.88000     Ti( 1.00)
        Ba            10.00   137.33000     Ba( 1.00)

     48 Sym. Ops., with inversion, found



   Cartesian axes

     site n.     atom                  positions (alat units)
         1           Ba  tau(   1) = (   0.0000000   0.0000000   0.0000000  )
         2           Ti  tau(   2) = (   0.5000000   0.5000000   0.5000000  )
         3           O   tau(   3) = (   0.0000000   0.5000000   0.5000000  )
         4           O   tau(   4) = (   0.5000000   0.0000000   0.5000000  )
         5           O   tau(   5) = (   0.5000000   0.5000000   0.0000000  )

     number of k points=    10
                       cart. coord. in units 2pi/alat
        k(    1) = (   0.0833333   0.0833333   0.0833333), wk =   0.0740741
        k(    2) = (   0.0833333   0.0833333   0.2500000), wk =   0.2222222
        k(    3) = (   0.0833333   0.0833333   0.4166667), wk =   0.2222222
        k(    4) = (   0.0833333   0.2500000   0.2500000), wk =   0.2222222
        k(    5) = (   0.0833333   0.2500000   0.4166667), wk =   0.4444444
        k(    6) = (   0.0833333   0.4166667   0.4166667), wk =   0.2222222
        k(    7) = (   0.2500000   0.2500000   0.2500000), wk =   0.0740741
        k(    8) = (   0.2500000   0.2500000   0.4166667), wk =   0.2222222
        k(    9) = (   0.2500000   0.4166667   0.4166667), wk =   0.2222222
        k(   10) = (   0.4166667   0.4166667   0.4166667), wk =   0.0740741

     Dense  grid:    71999 G-vectors     FFT dimensions: (  54,  54,  54)

     Smooth grid:    25413 G-vectors     FFT dimensions: (  40,  40,  40)

     Estimated max dynamical RAM per process >       2.69MB

     Estimated total allocated dynamical RAM >      75.40MB

     Initial potential from superposition of free atoms

     starting charge   28.99996, renormalised to   40.00000
     Starting wfc are   22 randomized atomic wfcs +    2 random wfc

     total cpu time spent up to now is        0.8 secs

     per-process dynamical memory:    32.1 Mb

     Self-consistent Calculation

     iteration #  1     ecut=    60.00 Ry     beta=0.60
     Davidson diagonalization with overlap
     ethr =  1.00E-02,  avg # of iterations = 11.7

     total cpu time spent up to now is        1.4 secs

     total energy              =      43.70235421 Ry
     Harris-Foulkes estimate   =    -373.65412634 Ry
     estimated scf accuracy    <     551.71977558 Ry

     iteration #  2     ecut=    60.00 Ry     beta=0.60
     Davidson diagonalization with overlap
     ethr =  1.00E-02,  avg # of iterations =  7.8

     total cpu time spent up to now is        1.8 secs

     total energy              =    -281.58651105 Ry
     Harris-Foulkes estimate   =    -444.29191080 Ry
     estimated scf accuracy    <     302.38762666 Ry

     iteration #  3     ecut=    60.00 Ry     beta=0.60
     Davidson diagonalization with overlap
     ethr =  1.00E-02,  avg # of iterations =  3.9

     total cpu time spent up to now is        2.0 secs

     total energy              =    -274.27658142 Ry
     Harris-Foulkes estimate   =    -297.95835975 Ry
     estimated scf accuracy    <      79.98953291 Ry

     iteration #  4     ecut=    60.00 Ry     beta=0.60
     Davidson diagonalization with overlap
     ethr =  1.00E-02,  avg # of iterations =  4.4

     total cpu time spent up to now is        2.3 secs

     total energy              =    -270.09351662 Ry
     Harris-Foulkes estimate   =    -276.24758880 Ry
     estimated scf accuracy    <      35.83916868 Ry

     iteration #  5     ecut=    60.00 Ry     beta=0.60
     Davidson diagonalization with overlap
     ethr =  1.00E-02,  avg # of iterations =  2.9

     total cpu time spent up to now is        2.4 secs

     total energy              =    -270.84962045 Ry
     Harris-Foulkes estimate   =    -270.77631736 Ry
     estimated scf accuracy    <      15.31713657 Ry

     iteration #  6     ecut=    60.00 Ry     beta=0.60
     Davidson diagonalization with overlap
     ethr =  1.00E-02,  avg # of iterations =  1.2

     total cpu time spent up to now is        2.5 secs

     total energy              =    -269.61573028 Ry
     Harris-Foulkes estimate   =    -270.87141569 Ry
     estimated scf accuracy    <      16.41878062 Ry

     iteration #  7     ecut=    60.00 Ry     beta=0.60
     Davidson diagonalization with overlap
     ethr =  1.00E-02,  avg # of iterations =  1.0

     total cpu time spent up to now is        2.6 secs

     total energy              =    -267.16717531 Ry
     Harris-Foulkes estimate   =    -269.64782590 Ry
     estimated scf accuracy    <      14.23613274 Ry

     iteration #  8     ecut=    60.00 Ry     beta=0.60
     Davidson diagonalization with overlap
     ethr =  1.00E-02,  avg # of iterations =  2.2

     total cpu time spent up to now is        2.8 secs

     total energy              =    -267.44251102 Ry
     Harris-Foulkes estimate   =    -267.48827118 Ry
     estimated scf accuracy    <       6.28944482 Ry

     iteration #  9     ecut=    60.00 Ry     beta=0.60
     Davidson diagonalization with overlap
     ethr =  1.00E-02,  avg # of iterations =  1.2

     negative rho (up, down):  1.282E-02 0.000E+00

     total cpu time spent up to now is        2.9 secs

     total energy              =    -266.30238382 Ry
     Harris-Foulkes estimate   =    -267.47175177 Ry
     estimated scf accuracy    <       6.28116714 Ry

     iteration # 10     ecut=    60.00 Ry     beta=0.60
     Davidson diagonalization with overlap
     ethr =  1.00E-02,  avg # of iterations =  3.1

     negative rho (up, down):  8.996E-03 0.000E+00

     total cpu time spent up to now is        3.1 secs

          k = 0.0833 0.0833 0.0833     band energies (ev):

   -59.6975 -35.6989 -35.6983 -35.6982 -10.1613  -9.3763  -9.3762  -1.0106
     0.4340   0.4342   0.4397   1.5516   1.5530   3.2994   4.0884   4.0894
     6.3832   6.4210   6.4220   6.6901   6.6902   6.7626  12.8908  13.2925

          k = 0.0833 0.0833 0.2500     band energies (ev):

   -59.6973 -35.7051 -35.6980 -35.6975  -9.9818  -9.3679  -9.1962  -1.2371
    -0.0873   0.2505   0.3124   0.4389   1.5822   3.3737   4.2941   5.3192
     6.3670   6.5415   6.6605   6.7333   6.8538   7.0207  12.0072  12.9434

          k = 0.0833 0.0833 0.4167     band energies (ev):

   -59.6971 -35.7113 -35.6978 -35.6974  -9.8368  -9.3596  -8.9328  -1.4394
    -1.2660   0.0893   0.1913   0.4411   1.6037   3.4742   4.4856   6.1467
     6.2642   6.6019   6.7215   6.8532   6.9070   7.4569  11.2928  12.5869

          k = 0.0833 0.2500 0.2500     band energies (ev):

   -59.6972 -35.7051 -35.7050 -35.6974  -9.7958  -9.2420  -9.1351  -1.4312
    -0.4789   0.1918   0.2722   0.3460   0.4670   3.2971   5.1104   5.4011
     6.2446   6.7297   6.7846   6.8147   7.0327   7.6840  11.7071  12.7774

          k = 0.0833 0.2500 0.4167     band energies (ev):

   -59.6970 -35.7118 -35.7048 -35.6969  -9.6660  -9.1837  -8.8979  -1.6093
    -1.4025   0.0697   0.2172   0.2580   0.3038   3.3376   5.3564   5.7364
     6.0131   6.6562   6.8803   6.9489   7.2668   8.3329  11.7114  12.3179

          k = 0.0833 0.4167 0.4167     band energies (ev):

   -59.6968 -35.7115 -35.7115 -35.6973  -9.5756  -8.8841  -8.8514  -1.7886
    -1.7605  -0.6116   0.0983   0.1147   0.3448   3.3725   5.4965   5.6124
     5.8223   6.7113   6.9972   7.0085   7.5996   9.1500  11.9931  12.3352

          k = 0.2500 0.2500 0.2500     band energies (ev):

   -59.6970 -35.7050 -35.7050 -35.7042  -9.5526  -9.1223  -9.1221  -1.4914
    -0.4812  -0.4706   0.0718   0.0721   0.3786   2.4445   5.6351   5.6366
     6.6612   6.6792   6.6825   7.1860   7.6652   7.6808  11.4739  12.9291

          k = 0.2500 0.2500 0.4167     band energies (ev):

   -59.6968 -35.7112 -35.7046 -35.7042  -9.3883  -9.1091  -8.8703  -1.5727
    -1.4585  -0.4621  -0.1191   0.0573   0.3122   2.2058   5.7010   5.7872
     6.3553   6.6450   7.1572   7.3556   7.6401   8.5019  11.8611  12.5275

          k = 0.2500 0.4167 0.4167     band energies (ev):

   -59.6966 -35.7113 -35.7112 -35.7040  -9.2396  -8.8606  -8.8322  -1.7560
    -1.5630  -1.0716  -0.1548  -0.1147   0.1990   1.8556   5.5642   5.6374
     6.1440   7.1682   7.2645   7.6114   7.9111   9.1476  12.3139  12.8132

          k = 0.4167 0.4167 0.4167     band energies (ev):

   -59.6964 -35.7111 -35.7106 -35.7106  -8.8717  -8.8128  -8.8128  -1.7572
    -1.7526  -1.2633  -0.3234  -0.3233  -0.0875   1.2362   5.5567   5.5568
     5.6963   7.5790   7.5790   7.6469   9.1254   9.1345  12.8716  13.1962

     highest occupied, lowest unoccupied level (ev):     7.6469    6.6902

!    total energy              =    -270.91198913 Ry
     Harris-Foulkes estimate   =    -272.34235481 Ry
     estimated scf accuracy    <      54.78593163 Ry

     The total energy is the sum of the following terms:

     one-electron contribution =    -119.56243438 Ry
     hartree contribution      =      51.82494658 Ry
     xc contribution           =     -43.13806170 Ry
     ewald contribution        =    -211.91466263 Ry
     scf correction            =      51.87822301 Ry

     iteration # 11     ecut=    60.00 Ry     beta=0.60
     Davidson diagonalization with overlap
     ethr =  1.00E-02,  avg # of iterations =  1.0

     negative rho (up, down):  9.494E-04 0.000E+00

     total cpu time spent up to now is        3.2 secs

     total energy              =    -267.35378712 Ry
     Harris-Foulkes estimate   =    -270.94371942 Ry
     estimated scf accuracy    <      49.26768024 Ry

     iteration # 12     ecut=    60.00 Ry     beta=0.60
     Davidson diagonalization with overlap
     ethr =  1.00E-02,  avg # of iterations =  1.4

     negative rho (up, down):  2.037E-02 0.000E+00

     total cpu time spent up to now is        3.4 secs

     total energy              =    -268.50982474 Ry
     Harris-Foulkes estimate   =    -267.61474672 Ry
     estimated scf accuracy    <      30.82470397 Ry

     iteration # 13     ecut=    60.00 Ry     beta=0.60
     Davidson diagonalization with overlap
     ethr =  1.00E-02,  avg # of iterations =  1.0

     negative rho (up, down):  6.822E-07 0.000E+00

     total cpu time spent up to now is        3.5 secs

     total energy              =    -265.57222303 Ry
     Harris-Foulkes estimate   =    -268.56354565 Ry
     estimated scf accuracy    <      34.17504489 Ry

     iteration # 14     ecut=    60.00 Ry     beta=0.60
     Davidson diagonalization with overlap
     ethr =  1.00E-02,  avg # of iterations =  2.6

     negative rho (up, down):  3.168E-07 0.000E+00

     total cpu time spent up to now is        3.6 secs

     total energy              =    -266.26466858 Ry
     Harris-Foulkes estimate   =    -266.51582712 Ry
     estimated scf accuracy    <      20.61792720 Ry

     iteration # 15     ecut=    60.00 Ry     beta=0.60
     Davidson diagonalization with overlap
     ethr =  1.00E-02,  avg # of iterations =  1.0

     negative rho (up, down):  1.191E-07 0.000E+00

     total cpu time spent up to now is        3.7 secs

     total energy              =    -265.90762963 Ry
     Harris-Foulkes estimate   =    -266.31832229 Ry
     estimated scf accuracy    <      19.12083844 Ry

     iteration # 16     ecut=    60.00 Ry     beta=0.60
     Davidson diagonalization with overlap
     ethr =  1.00E-02,  avg # of iterations =  1.0

     negative rho (up, down):  5.450E-07 0.000E+00

     total cpu time spent up to now is        3.9 secs

     total energy              =    -265.22968326 Ry
     Harris-Foulkes estimate   =    -265.95186658 Ry
     estimated scf accuracy    <      13.11092545 Ry

     iteration # 17     ecut=    60.00 Ry     beta=0.60
     Davidson diagonalization with overlap
     ethr =  1.00E-02,  avg # of iterations =  1.0

     negative rho (up, down):  3.865E-07 0.000E+00

     total cpu time spent up to now is        4.0 secs

     total energy              =    -265.19265339 Ry
     Harris-Foulkes estimate   =    -265.39531717 Ry
     estimated scf accuracy    <       4.57114659 Ry

     iteration # 18     ecut=    60.00 Ry     beta=0.60
     Davidson diagonalization with overlap
     ethr =  1.00E-02,  avg # of iterations =  1.0

     negative rho (up, down):  1.772E-07 0.000E+00

     total cpu time spent up to now is        4.1 secs

     total energy              =    -264.64857278 Ry
     Harris-Foulkes estimate   =    -265.22177025 Ry
     estimated scf accuracy    <       3.00416339 Ry

     iteration # 19     ecut=    60.00 Ry     beta=0.60
     Davidson diagonalization with overlap
     ethr =  7.51E-03,  avg # of iterations =  2.0

     negative rho (up, down):  7.988E-08 0.000E+00

     total cpu time spent up to now is        4.2 secs

     total energy              =    -264.81151304 Ry
     Harris-Foulkes estimate   =    -264.86907899 Ry
     estimated scf accuracy    <       0.31523589 Ry

     iteration # 20     ecut=    60.00 Ry     beta=0.60
     Davidson diagonalization with overlap
     ethr =  7.88E-04,  avg # of iterations =  2.7

     negative rho (up, down):  1.518E-07 0.000E+00

     total cpu time spent up to now is        4.4 secs

          k = 0.0833 0.0833 0.0833     band energies (ev):

   -45.9243 -22.4304 -22.4300 -22.4300 -12.3940  -6.6588  -6.1462  -6.1459
     2.2312   2.2312   2.4096   7.5796   7.7274   7.7285   8.4795   8.4799
     8.8526   9.3924   9.7630   9.7653  12.2360  12.2598  12.2875  14.6097

          k = 0.0833 0.0833 0.2500     band energies (ev):

   -45.9237 -22.4608 -22.4290 -22.4288 -12.2941  -6.7670  -6.1271  -6.0021
     2.3066   2.3140   2.6619   6.6934   7.4424   7.4905   8.0970   8.1442
     8.7354   8.7610   9.4197   9.5073  12.3056  13.0062  13.0065  14.6102

          k = 0.0833 0.0833 0.4167     band energies (ev):

   -45.9230 -22.4911 -22.4278 -22.4276 -12.1884  -6.9590  -6.1078  -5.7549
     2.4001   2.5487   2.7545   5.8298   7.1799   7.2048   7.5546   8.0247
     8.6058   8.7150   9.0717   9.0868  12.3391  13.6747  13.6762  14.6069

          k = 0.0833 0.2500 0.2500     band energies (ev):

   -45.9230 -22.4597 -22.4587 -22.4277 -12.2122  -6.6893  -6.0603  -6.0225
     2.1604   2.3284   2.8334   6.3859   6.7912   7.1997   7.6954   7.8550
     8.3341   9.0488   9.0518   9.6451  12.9816  13.0829  13.3944  15.1243

          k = 0.0833 0.2500 0.4167     band energies (ev):

   -45.9225 -22.4892 -22.4577 -22.4265 -12.1265  -6.7328  -6.0418  -5.8566
     2.1782   2.3713   2.7840   5.7390   6.5696   6.7393   7.2919   7.8296
     8.4197   8.8177   9.0481   9.5661  13.0661  13.6978  13.8808  15.2265

          k = 0.0833 0.4167 0.4167     band energies (ev):

   -45.9218 -22.4874 -22.4871 -22.4253 -12.0623  -6.5217  -5.9681  -5.9372
     2.0823   2.1483   2.7873   5.5849   5.9020   6.2553   7.3832   7.4069
     8.0590   9.2070   9.3695   9.8260  13.7072  13.7324  14.2035  15.4436

          k = 0.2500 0.2500 0.2500     band energies (ev):

   -45.9224 -22.4586 -22.4574 -22.4573 -12.1431  -6.5248  -6.0204  -6.0203
     1.9599   1.9600   2.9297   6.1935   6.7157   6.7158   7.3974   7.8843
     7.8852   9.3188   9.3781   9.3781  13.4503  13.4752  13.4878  16.3377

          k = 0.2500 0.2500 0.4167     band energies (ev):

   -45.9218 -22.4875 -22.4566 -22.4560 -12.0712  -6.4822  -5.9793  -5.8827
     1.7638   1.9445   2.5793   5.7186   6.5500   6.6729   6.9590   8.0164
     8.0316   9.0920   9.4286   9.4710  13.5410  13.9531  13.9675  16.3176

          k = 0.2500 0.4167 0.4167     band energies (ev):

   -45.9212 -22.4859 -22.4857 -22.4549 -12.0139  -6.2427  -5.9063  -5.8932
     1.5981   1.6348   2.0833   5.6009   5.9038   6.7201   7.1530   7.8903
     8.0344   9.3700   9.5030   9.8010  14.0333  14.0439  14.2936  16.7435

          k = 0.4167 0.4167 0.4167     band energies (ev):

   -45.9206 -22.4844 -22.4842 -22.4842 -11.9646  -5.9493  -5.8418  -5.8418
     1.2465   1.2465   1.4503   5.4997   5.9026   5.9070   7.8783   8.1788
     8.1791   9.7490   9.7492   9.8321  14.3885  14.3887  14.3905  17.8798

     highest occupied, lowest unoccupied level (ev):     9.8321   12.2360

!    total energy              =    -264.82120875 Ry
     Harris-Foulkes estimate   =    -264.85470334 Ry
     estimated scf accuracy    <       0.19274641 Ry

     The total energy is the sum of the following terms:

     one-electron contribution =     -70.38219543 Ry
     hartree contribution      =      56.80032009 Ry
     xc contribution           =     -42.69263748 Ry
     ewald contribution        =    -211.91466263 Ry
     scf correction            =       3.36796671 Ry

     iteration # 21     ecut=    60.00 Ry     beta=0.60
     Davidson diagonalization with overlap
     ethr =  4.82E-04,  avg # of iterations =  1.0

     negative rho (up, down):  1.108E-07 0.000E+00

     total cpu time spent up to now is        4.5 secs

     total energy              =    -264.78950667 Ry
     Harris-Foulkes estimate   =    -264.82886932 Ry
     estimated scf accuracy    <       0.11449617 Ry

     iteration # 22     ecut=    60.00 Ry     beta=0.60
     Davidson diagonalization with overlap
     ethr =  2.86E-04,  avg # of iterations =  2.3

     negative rho (up, down):  1.085E-08 0.000E+00

     total cpu time spent up to now is        4.6 secs

     total energy              =    -264.78625207 Ry
     Harris-Foulkes estimate   =    -264.80209568 Ry
     estimated scf accuracy    <       0.05300636 Ry

     iteration # 23     ecut=    60.00 Ry     beta=0.60
     Davidson diagonalization with overlap
     ethr =  1.33E-04,  avg # of iterations =  1.9

     total cpu time spent up to now is        4.8 secs

     total energy              =    -264.78605284 Ry
     Harris-Foulkes estimate   =    -264.79007422 Ry
     estimated scf accuracy    <       0.00923792 Ry

     iteration # 24     ecut=    60.00 Ry     beta=0.60
     Davidson diagonalization with overlap
     ethr =  2.31E-05,  avg # of iterations =  4.1

     total cpu time spent up to now is        5.0 secs

     total energy              =    -264.78954170 Ry
     Harris-Foulkes estimate   =    -264.79011199 Ry
     estimated scf accuracy    <       0.00296652 Ry

     iteration # 25     ecut=    60.00 Ry     beta=0.60
     Davidson diagonalization with overlap
     ethr =  7.42E-06,  avg # of iterations =  2.9

     total cpu time spent up to now is        5.2 secs

     total energy              =    -264.78933472 Ry
     Harris-Foulkes estimate   =    -264.79004773 Ry
     estimated scf accuracy    <       0.00357641 Ry

     iteration # 26     ecut=    60.00 Ry     beta=0.60
     Davidson diagonalization with overlap
     ethr =  7.42E-06,  avg # of iterations =  1.1

     total cpu time spent up to now is        5.3 secs

     total energy              =    -264.79025176 Ry
     Harris-Foulkes estimate   =    -264.78946190 Ry
     estimated scf accuracy    <       0.00159917 Ry

     iteration # 27     ecut=    60.00 Ry     beta=0.60
     Davidson diagonalization with overlap
     ethr =  4.00E-06,  avg # of iterations =  2.2

     total cpu time spent up to now is        5.4 secs

     total energy              =    -264.78737155 Ry
     Harris-Foulkes estimate   =    -264.79049475 Ry
     estimated scf accuracy    <       0.00545000 Ry

     iteration # 28     ecut=    60.00 Ry     beta=0.60
     Davidson diagonalization with overlap
     ethr =  4.00E-06,  avg # of iterations =  4.2

     total cpu time spent up to now is        5.6 secs

     total energy              =    -264.78876946 Ry
     Harris-Foulkes estimate   =    -264.78989436 Ry
     estimated scf accuracy    <       0.00371063 Ry

     iteration # 29     ecut=    60.00 Ry     beta=0.60
     Davidson diagonalization with overlap
     ethr =  4.00E-06,  avg # of iterations =  3.1

     total cpu time spent up to now is        5.8 secs

     total energy              =    -264.78907101 Ry
     Harris-Foulkes estimate   =    -264.78918861 Ry
     estimated scf accuracy    <       0.00018914 Ry

     iteration # 30     ecut=    60.00 Ry     beta=0.60
     Davidson diagonalization with overlap
     ethr =  4.73E-07,  avg # of iterations =  3.7

     total cpu time spent up to now is        6.0 secs

          k = 0.0833 0.0833 0.0833     band energies (ev):

   -44.6241 -21.2280 -21.2274 -21.2274 -13.7487  -5.7446  -5.0372  -5.0372
     1.2163   1.2163   1.3733   8.4005   8.6253   8.6253   9.3642   9.3642
     9.8107  10.4034  10.7310  10.7310  13.1181  13.1760  13.1760  15.8072

          k = 0.0833 0.0833 0.2500     band energies (ev):

   -44.6234 -21.2605 -21.2263 -21.2260 -13.6805  -5.8343  -5.0122  -4.9228
     1.2704   1.2908   1.6020   7.6507   8.3209   8.4019   8.8916   8.9091
     9.6724   9.7162  10.4199  10.4222  13.2206  13.9707  13.9822  15.8187

          k = 0.0833 0.0833 0.4167     band energies (ev):

   -44.6227 -21.2930 -21.2248 -21.2246 -13.6103  -6.0129  -4.9869  -4.6887
     1.3251   1.4660   1.7204   6.8850   8.0484   8.1223   8.3267   8.6661
     9.4438   9.6092  10.0539  10.1615  13.2913  14.7321  14.7406  15.8175

          k = 0.0833 0.2500 0.2500     band energies (ev):

   -44.6227 -21.2593 -21.2577 -21.2248 -13.6239  -5.7344  -4.9894  -4.9199
     1.1902   1.2911   1.7189   7.2990   7.8720   8.0421   8.4588   8.6486
     9.2607   9.9680  10.0349  10.5064  13.9605  14.0974  14.3290  16.3411

          k = 0.0833 0.2500 0.4167     band energies (ev):

   -44.6221 -21.2905 -21.2566 -21.2234 -13.5657  -5.7533  -4.9402  -4.8027
     1.1902   1.3886   1.6430   6.7938   7.3912   7.7011   8.1340   8.5057
     9.3804   9.7237   9.9239  10.4761  14.0780  14.7670  14.8831  16.4414

          k = 0.0833 0.4167 0.4167     band energies (ev):

   -44.6214 -21.2883 -21.2879 -21.2221 -13.5201  -5.4745  -4.9369  -4.8800
     1.1617   1.2103   1.6050   6.6219   6.9014   7.0378   8.1390   8.1561
     9.1689   9.9823  10.1576  10.8285  14.7785  14.8120  15.2006  16.6372

          k = 0.2500 0.2500 0.2500     band energies (ev):

   -44.6221 -21.2580 -21.2562 -21.2562 -13.5744  -5.5572  -4.9293  -4.9293
     1.0105   1.0105   1.7901   7.0575   7.8139   7.8139   8.3512   8.5113
     8.5113  10.2594  10.2594  10.3177  14.4543  14.4544  14.4635  17.6060

          k = 0.2500 0.2500 0.4167     band energies (ev):

   -44.6214 -21.2884 -21.2554 -21.2546 -13.5237  -5.4822  -4.8665  -4.8232
     0.8299   1.0418   1.5186   6.7695   7.4085   7.7796   7.8368   8.5042
     8.6906  10.0299  10.3700  10.4180  14.5735  14.9717  15.0154  17.5701

          k = 0.2500 0.4167 0.4167     band energies (ev):

   -44.6207 -21.2865 -21.2862 -21.2535 -13.4807  -5.1871  -4.8409  -4.8063
     0.7136   0.7701   1.1256   6.6402   7.0399   7.6162   7.8872   8.4412
     8.5437  10.2998  10.4240  10.8281  15.0985  15.1105  15.3322  17.9062

          k = 0.4167 0.4167 0.4167     band energies (ev):

   -44.6201 -21.2847 -21.2844 -21.2844 -13.4404  -4.8710  -4.7370  -4.7370
     0.4037   0.4037   0.5969   6.5159   7.0457   7.0457   8.3199   8.6035
     8.6035  10.7698  10.7698  10.8818  15.4681  15.4681  15.4720  18.3789

     highest occupied, lowest unoccupied level (ev):    10.8818   13.1181

!    total energy              =    -264.78909220 Ry
     Harris-Foulkes estimate   =    -264.78915994 Ry
     estimated scf accuracy    <       0.00017185 Ry

     The total energy is the sum of the following terms:

     one-electron contribution =     -68.15853743 Ry
     hartree contribution      =      58.12575135 Ry
     xc contribution           =     -42.80406776 Ry
     ewald contribution        =    -211.91466263 Ry
     scf correction            =      -0.03757572 Ry

     iteration # 31     ecut=    60.00 Ry     beta=0.60
     Davidson diagonalization with overlap
     ethr =  4.30E-07,  avg # of iterations =  2.8

     total cpu time spent up to now is        6.1 secs

     total energy              =    -264.78912712 Ry
     Harris-Foulkes estimate   =    -264.78913031 Ry
     estimated scf accuracy    <       0.00000776 Ry

     iteration # 32     ecut=    60.00 Ry     beta=0.60
     Davidson diagonalization with overlap
     ethr =  1.94E-08,  avg # of iterations =  3.6

     total cpu time spent up to now is        6.3 secs

     total energy              =    -264.78913011 Ry
     Harris-Foulkes estimate   =    -264.78913018 Ry
     estimated scf accuracy    <       0.00000012 Ry

     iteration # 33     ecut=    60.00 Ry     beta=0.60
     Davidson diagonalization with overlap
     ethr =  3.00E-10,  avg # of iterations =  4.1

     total cpu time spent up to now is        6.5 secs

     total energy              =    -264.78913020 Ry
     Harris-Foulkes estimate   =    -264.78913020 Ry
     estimated scf accuracy    <       0.00000002 Ry

     iteration # 34     ecut=    60.00 Ry     beta=0.60
     Davidson diagonalization with overlap
     ethr =  4.19E-11,  avg # of iterations =  3.5

     total cpu time spent up to now is        6.7 secs

     total energy              =    -264.78913020 Ry
     Harris-Foulkes estimate   =    -264.78913020 Ry
     estimated scf accuracy    <          7.4E-09 Ry

     iteration # 35     ecut=    60.00 Ry     beta=0.60
     Davidson diagonalization with overlap
     ethr =  1.84E-11,  avg # of iterations =  2.8

     total cpu time spent up to now is        6.9 secs

     total energy              =    -264.78913020 Ry
     Harris-Foulkes estimate   =    -264.78913020 Ry
     estimated scf accuracy    <          5.3E-11 Ry

     iteration # 36     ecut=    60.00 Ry     beta=0.60
     Davidson diagonalization with overlap
     ethr =  1.33E-13,  avg # of iterations =  4.8

     total cpu time spent up to now is        7.1 secs

     total energy              =    -264.78913020 Ry
     Harris-Foulkes estimate   =    -264.78913020 Ry
     estimated scf accuracy    <          4.2E-12 Ry

     iteration # 37     ecut=    60.00 Ry     beta=0.60
     Davidson diagonalization with overlap
     ethr =  1.00E-13,  avg # of iterations =  1.0

     total cpu time spent up to now is        7.2 secs

     total energy              =    -264.78913020 Ry
     Harris-Foulkes estimate   =    -264.78913020 Ry
     estimated scf accuracy    <          1.2E-12 Ry

     iteration # 38     ecut=    60.00 Ry     beta=0.60
     Davidson diagonalization with overlap
     ethr =  1.00E-13,  avg # of iterations =  1.0

     total cpu time spent up to now is        7.4 secs

     End of self-consistent calculation

          k = 0.0833 0.0833 0.0833 (  3164 PWs)   bands (ev):

   -44.6707 -21.2707 -21.2701 -21.2701 -13.7441  -5.7394  -5.0316  -5.0316
     1.2206   1.2206   1.3776   8.4028   8.6267   8.6267   9.3693   9.3693
     9.8178  10.4076  10.7363  10.7363  13.0898  13.1482  13.1482  15.7730

          k = 0.0833 0.0833 0.2500 (  3156 PWs)   bands (ev):

   -44.6700 -21.3029 -21.2690 -21.2687 -13.6759  -5.8291  -5.0066  -4.9175
     1.2747   1.2952   1.6064   7.6498   8.3218   8.4040   8.8949   8.9116
     9.6784   9.7209  10.4241  10.4263  13.1918  13.9441  13.9551  15.7840

          k = 0.0833 0.0833 0.4167 (  3188 PWs)   bands (ev):

   -44.6693 -21.3352 -21.2676 -21.2674 -13.6058  -6.0078  -4.9812  -4.6837
     1.3294   1.4704   1.7249   6.8810   8.0505   8.1247   8.3288   8.6690
     9.4478   9.6140  10.0573  10.1657  13.2616  14.7047  14.7126  15.7826

          k = 0.0833 0.2500 0.2500 (  3173 PWs)   bands (ev):

   -44.6693 -21.3018 -21.3002 -21.2675 -13.6193  -5.7293  -4.9842  -4.9144
     1.1946   1.2954   1.7234   7.2996   7.8681   8.0431   8.4604   8.6506
     9.2647   9.9750  10.0374  10.5126  13.9328  14.0703  14.3012  16.3080

          k = 0.0833 0.2500 0.4167 (  3178 PWs)   bands (ev):

   -44.6687 -21.3328 -21.2991 -21.2661 -13.5611  -5.7482  -4.9348  -4.7977
     1.1946   1.3931   1.6475   6.7906   7.3919   7.6986   8.1356   8.5068
     9.3833   9.7280   9.9298  10.4827  14.0500  14.7390  14.8539  16.4086

          k = 0.0833 0.4167 0.4167 (  3183 PWs)   bands (ev):

   -44.6680 -21.3305 -21.3302 -21.2648 -13.5155  -5.4692  -4.9321  -4.8750
     1.1662   1.2148   1.6094   6.6198   6.9024   7.0313   8.1399   8.1570
     9.1695   9.9889  10.1644  10.8361  14.7501  14.7837  15.1700  16.6052

          k = 0.2500 0.2500 0.2500 (  3197 PWs)   bands (ev):

   -44.6687 -21.3005 -21.2987 -21.2987 -13.5699  -5.5522  -4.9240  -4.9240
     1.0148   1.0148   1.7947   7.0586   7.8101   7.8101   8.3522   8.5129
     8.5129  10.2651  10.2651  10.3251  14.4271  14.4271  14.4343  17.5761

          k = 0.2500 0.2500 0.4167 (  3190 PWs)   bands (ev):

   -44.6680 -21.3307 -21.2979 -21.2971 -13.5191  -5.4772  -4.8611  -4.8183
     0.8341   1.0462   1.5231   6.7668   7.4078   7.7758   7.8358   8.5053
     8.6915  10.0359  10.3769  10.4249  14.5456  14.9433  14.9862  17.5404

          k = 0.2500 0.4167 0.4167 (  3181 PWs)   bands (ev):

   -44.6673 -21.3287 -21.3284 -21.2960 -13.4760  -5.1821  -4.8360  -4.8012
     0.7177   0.7744   1.1300   6.6385   7.0334   7.6163   7.8845   8.4417
     8.5440  10.3068  10.4311  10.8357  15.0700  15.0822  15.3021  17.8810

          k = 0.4167 0.4167 0.4167 (  3181 PWs)   bands (ev):

   -44.6667 -21.3270 -21.3267 -21.3267 -13.4358  -4.8661  -4.7320  -4.7320
     0.4078   0.4078   0.6011   6.5158   7.0392   7.0392   8.3200   8.6036
     8.6036  10.7774  10.7774  10.8896  15.4388  15.4388  15.4428  18.3796

     highest occupied, lowest unoccupied level (ev):    10.8896   13.0898

!    total energy              =    -264.78913020 Ry
     Harris-Foulkes estimate   =    -264.78913020 Ry
     estimated scf accuracy    <          2.7E-14 Ry

     The total energy is the sum of the following terms:

     one-electron contribution =     -68.20138665 Ry
     hartree contribution      =      58.13144372 Ry
     xc contribution           =     -42.80452464 Ry
     ewald contribution        =    -211.91466263 Ry

     convergence has been achieved in  38 iterations

     Forces acting on atoms (cartesian axes, Ry/au):

     atom    1 type  3   force =     0.00000000    0.00000000    0.00000000
     atom    2 type  2   force =     0.00000000   -0.00000000    0.00000000
     atom    3 type  1   force =     0.00000000    0.00000000    0.00000000
     atom    4 type  1   force =     0.00000000    0.00000000    0.00000000
     atom    5 type  1   force =     0.00000000   -0.00000000   -0.00000000

     Total force =     0.000000     Total SCF correction =     0.000000


     Computing stress (Cartesian axis) and pressure

          total   stress  (Ry/bohr**3)                   (kbar)     P=   28.74
   0.00019539   0.00000000   0.00000000         28.74      0.00      0.00
   0.00000000   0.00019539   0.00000000          0.00     28.74      0.00
   0.00000000   0.00000000   0.00019539          0.00      0.00     28.74


     Writing output data file bto.save
 
     init_run     :      0.13s CPU      0.42s WALL (       1 calls)
     electrons    :      6.38s CPU      6.63s WALL (       1 calls)
     forces       :      0.04s CPU      0.04s WALL (       1 calls)
     stress       :      0.08s CPU      0.09s WALL (       1 calls)

     Called by init_run:
     wfcinit      :      0.04s CPU      0.05s WALL (       1 calls)
     potinit      :      0.01s CPU      0.03s WALL (       1 calls)

     Called by electrons:
     c_bands      :      5.02s CPU      5.15s WALL (      38 calls)
     sum_band     :      0.97s CPU      1.02s WALL (      38 calls)
     v_of_rho     :      0.02s CPU      0.03s WALL (      39 calls)
     newd         :      0.32s CPU      0.33s WALL (      39 calls)
     mix_rho      :      0.04s CPU      0.05s WALL (      38 calls)

     Called by c_bands:
     init_us_2    :      0.03s CPU      0.05s WALL (     790 calls)
     cegterg      :      4.75s CPU      4.88s WALL (     380 calls)

     Called by sum_band:
     sum_band:bec :      0.00s CPU      0.00s WALL (     380 calls)
     addusdens    :      0.37s CPU      0.37s WALL (      38 calls)

     Called by *egterg:
     h_psi        :      2.67s CPU      2.81s WALL (    1432 calls)
     s_psi        :      0.05s CPU      0.06s WALL (    1432 calls)
     g_psi        :      0.01s CPU      0.01s WALL (    1042 calls)
     cdiaghg      :      1.44s CPU      1.38s WALL (    1422 calls)

     Called by h_psi:
     h_psi:pot    :      2.66s CPU      2.80s WALL (    1432 calls)
     h_psi:calbec :      0.17s CPU      0.15s WALL (    1432 calls)
     vloc_psi     :      2.44s CPU      2.58s WALL (    1432 calls)
     add_vuspsi   :      0.05s CPU      0.07s WALL (    1432 calls)

     General routines
     calbec       :      0.24s CPU      0.21s WALL (    1862 calls)
     fft          :      0.05s CPU      0.26s WALL (     352 calls)
     ffts         :      0.01s CPU      0.01s WALL (      77 calls)
     fftw         :      2.70s CPU      2.82s WALL (   58678 calls)
     interpolate  :      0.02s CPU      0.02s WALL (      77 calls)
     davcio       :      0.00s CPU      0.03s WALL (      10 calls)
 
     Parallel routines
     fft_scatter  :      1.61s CPU      1.65s WALL (   59107 calls)
 
     PWSCF        :     6.82s CPU         7.70s WALL

 
   This run was terminated on:  17: 0:16  30Dec2017            

=------------------------------------------------------------------------------=
   JOB DONE.
=------------------------------------------------------------------------------=
