
     Program PWSCF v.6.1 (svn rev. 13369) starts on 30Dec2017 at 18:56:18 

     This program is part of the open-source Quantum ESPRESSO suite
     for quantum simulation of materials; please cite
         "P. Giannozzi et al., J. Phys.:Condens. Matter 21 395502 (2009);
          URL http://www.quantum-espresso.org", 
     in publications or presentations arising from this work. More details at
     http://www.quantum-espresso.org/quote

     Parallel version (MPI), running on    28 processors
     R & G space division:  proc/nbgrp/npool/nimage =      28
     Waiting for input...
     Reading input from standard input

     Current dimensions of program PWSCF are:
     Max number of different atomic species (ntypx) = 10
     Max number of k-points (npk) =  40000
     Max angular momentum in pseudopotentials (lmaxx) =  3

     Subspace diagonalization in iterative solution of the eigenvalue problem:
     a serial algorithm will be used

 
     Parallelization info
     --------------------
     sticks:   dense  smooth     PW     G-vecs:    dense   smooth      PW
     Min         125      62     17                 5539     1956     291
     Max         126      63     18                 5541     1961     296
     Sum        3505    1749    489               155139    54795    8217
 

     Title: 
     cubic BaTiO3 at 7.40 lattice parameter. xc=PZ                              


     bravais-lattice index     =            1
     lattice parameter (alat)  =       7.4000  a.u.
     unit-cell volume          =     405.2240 (a.u.)^3
     number of atoms/cell      =            5
     number of atomic types    =            3
     number of electrons       =        40.00
     number of Kohn-Sham states=           24
     kinetic-energy cutoff     =     100.0000  Ry
     charge density cutoff     =     800.0000  Ry
     convergence threshold     =      1.0E-12
     mixing beta               =       0.6000
     number of iterations used =            8  plain     mixing
     Exchange-correlation      = SLA-PZ-NOGX-NOGC ( 1  1  0  0 0 0)

     celldm(1)=   7.400000  celldm(2)=   0.000000  celldm(3)=   0.000000
     celldm(4)=   0.000000  celldm(5)=   0.000000  celldm(6)=   0.000000

     crystal axes: (cart. coord. in units of alat)
               a(1) = (   1.000000   0.000000   0.000000 )  
               a(2) = (   0.000000   1.000000   0.000000 )  
               a(3) = (   0.000000   0.000000   1.000000 )  

     reciprocal axes: (cart. coord. in units 2 pi/alat)
               b(1) = (  1.000000  0.000000  0.000000 )  
               b(2) = (  0.000000  1.000000  0.000000 )  
               b(3) = (  0.000000  0.000000  1.000000 )  


     PseudoPot. # 1 for O  read from file:
     ../../PSP_DIR/O.pz-van_ak.UPF
     MD5 check sum: d814fcb982dd9af4fc6452aae6bb9318
     Pseudo is Ultrasoft, Zval =  6.0
     Generated by new atomic code, or converted to UPF format
     Using radial grid of  737 points,  4 beta functions with: 
                l(1) =   0
                l(2) =   0
                l(3) =   1
                l(4) =   1
     Q(r) pseudized with  8 coefficients,  rinner =    0.800   0.800   0.800


     PseudoPot. # 2 for Ti read from file:
     ../../PSP_DIR/Ti.pz-sp-van_ak.UPF
     MD5 check sum: 545d0e6e05332b8871a8093f427cb0ca
     Pseudo is Ultrasoft, Zval = 12.0
     Generated by new atomic code, or converted to UPF format
     Using radial grid of  851 points,  6 beta functions with: 
                l(1) =   0
                l(2) =   0
                l(3) =   1
                l(4) =   1
                l(5) =   2
                l(6) =   2
     Q(r) pseudized with  8 coefficients,  rinner =    1.000   1.000   1.000
                                                       1.000   1.000

     PseudoPot. # 3 for Ba read from file:
     ../../PSP_DIR/Ba.pz-sp-hgh.UPF
     MD5 check sum: 155c4e4bbe33bd45901c985a874b3acf
     Pseudo is Norm-conserving, Zval = 10.0
     Generated in analytical, separable form
     Using radial grid of 1251 points,  6 beta functions with: 
                l(1) =   0
                l(2) =   0
                l(3) =   1
                l(4) =   1
                l(5) =   2
                l(6) =   3

     atomic species   valence    mass     pseudopotential
        O              6.00    15.99000     O ( 1.00)
        Ti            12.00    47.88000     Ti( 1.00)
        Ba            10.00   137.33000     Ba( 1.00)

     48 Sym. Ops., with inversion, found



   Cartesian axes

     site n.     atom                  positions (alat units)
         1           Ba  tau(   1) = (   0.0000000   0.0000000   0.0000000  )
         2           Ti  tau(   2) = (   0.5000000   0.5000000   0.5000000  )
         3           O   tau(   3) = (   0.0000000   0.5000000   0.5000000  )
         4           O   tau(   4) = (   0.5000000   0.0000000   0.5000000  )
         5           O   tau(   5) = (   0.5000000   0.5000000   0.0000000  )

     number of k points=    10
                       cart. coord. in units 2pi/alat
        k(    1) = (   0.0833333   0.0833333   0.0833333), wk =   0.0740741
        k(    2) = (   0.0833333   0.0833333   0.2500000), wk =   0.2222222
        k(    3) = (   0.0833333   0.0833333   0.4166667), wk =   0.2222222
        k(    4) = (   0.0833333   0.2500000   0.2500000), wk =   0.2222222
        k(    5) = (   0.0833333   0.2500000   0.4166667), wk =   0.4444444
        k(    6) = (   0.0833333   0.4166667   0.4166667), wk =   0.2222222
        k(    7) = (   0.2500000   0.2500000   0.2500000), wk =   0.0740741
        k(    8) = (   0.2500000   0.2500000   0.4166667), wk =   0.2222222
        k(    9) = (   0.2500000   0.4166667   0.4166667), wk =   0.2222222
        k(   10) = (   0.4166667   0.4166667   0.4166667), wk =   0.0740741

     Dense  grid:   155139 G-vectors     FFT dimensions: (  72,  72,  72)

     Smooth grid:    54795 G-vectors     FFT dimensions: (  48,  48,  48)

     Estimated max dynamical RAM per process >       5.66MB

     Estimated total allocated dynamical RAM >     158.53MB

     Initial potential from superposition of free atoms

     starting charge   28.99996, renormalised to   40.00000
     Starting wfc are   22 randomized atomic wfcs +    2 random wfc

     total cpu time spent up to now is        1.7 secs

     per-process dynamical memory:    46.0 Mb

     Self-consistent Calculation

     iteration #  1     ecut=   100.00 Ry     beta=0.60
     Davidson diagonalization with overlap
     ethr =  1.00E-02,  avg # of iterations = 12.0

     total cpu time spent up to now is        2.5 secs

     total energy              =      56.12846324 Ry
     Harris-Foulkes estimate   =    -388.55916160 Ry
     estimated scf accuracy    <     586.78987052 Ry

     iteration #  2     ecut=   100.00 Ry     beta=0.60
     Davidson diagonalization with overlap
     ethr =  1.00E-02,  avg # of iterations =  8.1

     total cpu time spent up to now is        3.1 secs

     total energy              =    -286.24942508 Ry
     Harris-Foulkes estimate   =    -456.82817386 Ry
     estimated scf accuracy    <     315.48824322 Ry

     iteration #  3     ecut=   100.00 Ry     beta=0.60
     Davidson diagonalization with overlap
     ethr =  1.00E-02,  avg # of iterations =  4.0

     total cpu time spent up to now is        3.4 secs

     total energy              =    -277.50866543 Ry
     Harris-Foulkes estimate   =    -302.76607089 Ry
     estimated scf accuracy    <      85.03636482 Ry

     iteration #  4     ecut=   100.00 Ry     beta=0.60
     Davidson diagonalization with overlap
     ethr =  1.00E-02,  avg # of iterations =  4.5

     total cpu time spent up to now is        3.7 secs

     total energy              =    -272.55413575 Ry
     Harris-Foulkes estimate   =    -279.26832988 Ry
     estimated scf accuracy    <      40.41875581 Ry

     iteration #  5     ecut=   100.00 Ry     beta=0.60
     Davidson diagonalization with overlap
     ethr =  1.00E-02,  avg # of iterations =  3.2

     total cpu time spent up to now is        3.9 secs

     total energy              =    -273.12736021 Ry
     Harris-Foulkes estimate   =    -273.02895432 Ry
     estimated scf accuracy    <      20.90925511 Ry

     iteration #  6     ecut=   100.00 Ry     beta=0.60
     Davidson diagonalization with overlap
     ethr =  1.00E-02,  avg # of iterations =  1.1

     total cpu time spent up to now is        4.1 secs

     total energy              =    -271.72889062 Ry
     Harris-Foulkes estimate   =    -273.15787523 Ry
     estimated scf accuracy    <      22.58245215 Ry

     iteration #  7     ecut=   100.00 Ry     beta=0.60
     Davidson diagonalization with overlap
     ethr =  1.00E-02,  avg # of iterations =  1.0

     total cpu time spent up to now is        4.3 secs

     total energy              =    -268.81956429 Ry
     Harris-Foulkes estimate   =    -271.75347923 Ry
     estimated scf accuracy    <      19.11466769 Ry

     iteration #  8     ecut=   100.00 Ry     beta=0.60
     Davidson diagonalization with overlap
     ethr =  1.00E-02,  avg # of iterations =  2.3

     negative rho (up, down):  1.066E-07 0.000E+00

     total cpu time spent up to now is        4.5 secs

     total energy              =    -262.93562016 Ry
     Harris-Foulkes estimate   =    -269.07741791 Ry
     estimated scf accuracy    <       9.91754349 Ry

     iteration #  9     ecut=   100.00 Ry     beta=0.60
     Davidson diagonalization with overlap
     ethr =  1.00E-02,  avg # of iterations =  3.0

     negative rho (up, down):  2.323E-07 0.000E+00

     total cpu time spent up to now is        4.8 secs

     total energy              =    -265.38736540 Ry
     Harris-Foulkes estimate   =    -265.04745243 Ry
     estimated scf accuracy    <       0.97201469 Ry

     iteration # 10     ecut=   100.00 Ry     beta=0.60
     Davidson diagonalization with overlap
     ethr =  2.43E-03,  avg # of iterations =  5.7

     negative rho (up, down):  4.097E-04 0.000E+00

     total cpu time spent up to now is        5.1 secs

          k = 0.0833 0.0833 0.0833     band energies (ev):

   -37.4824 -16.5019 -14.7016 -14.7014 -14.6893  -5.4658  -4.6726  -4.6693
    -1.3795  -1.3777  -1.2245   8.8386   9.2002   9.2050   9.4542   9.4689
     9.8905  10.9038  11.1295  11.1351  14.7349  15.8499  16.1303  16.1686

          k = 0.0833 0.0833 0.2500     band energies (ev):

   -37.4808 -16.4753 -14.7711 -14.6977 -14.6923  -5.6410  -4.6356  -4.5055
    -1.3572  -1.2934  -0.9243   8.3230   8.7529   8.9942   9.0456   9.1994
     9.7714  10.0902  10.8941  10.9436  15.6182  15.6625  16.5190  17.3647

          k = 0.0833 0.0833 0.4167     band energies (ev):

   -37.4793 -16.4505 -14.8354 -14.6942 -14.6937  -5.9072  -4.5979  -4.1831
    -1.3408  -1.1900  -0.6893   8.0616   8.4529   8.5580   8.6109   8.6380
     9.6486   9.7763  10.6750  10.7702  16.7195  17.5030  18.6700  19.1485

          k = 0.0833 0.2500 0.2500     band energies (ev):

   -37.4793 -16.4355 -14.7984 -14.7640 -14.6930  -5.5158  -4.6420  -4.4949
    -1.3347  -1.2716  -0.8435   7.8298   8.4103   8.8452   8.8686   9.1195
     9.6942  10.0049  10.6514  10.6915  15.8688  16.4628  17.6382  17.6870

          k = 0.0833 0.2500 0.4167     band energies (ev):

   -37.4778 -16.3961 -14.8614 -14.7922 -14.6909  -5.5675  -4.5391  -4.3781
    -1.3641  -1.1098  -0.8735   7.5689   8.0103   8.4869   8.7006   8.8534
     9.6052  10.0081  10.4741  10.5554  16.7690  17.7574  18.2509  18.6918

          k = 0.0833 0.4167 0.4167     band energies (ev):

   -37.4764 -16.3385 -14.8924 -14.8828 -14.6884  -5.1710  -4.6192  -4.4881
    -1.2583  -1.1565  -1.0225   7.0979   7.7745   8.4106   8.4232   8.6431
     9.8708  10.1025  10.2212  10.8774  17.1403  17.6640  18.5061  18.7307

          k = 0.2500 0.2500 0.2500     band energies (ev):

   -37.4778 -16.3929 -14.7935 -14.7933 -14.7682  -5.2902  -4.5281  -4.5278
    -1.4711  -1.4710  -0.7789   7.5325   8.5644   8.5802   9.0774   9.0814
     9.1298  10.4092  10.4540  10.4546  16.3462  16.3697  18.4950  18.9221

          k = 0.2500 0.2500 0.4167     band energies (ev):

   -37.4763 -16.3500 -14.8719 -14.7905 -14.7882  -5.2200  -4.4048  -4.3979
    -1.6850  -1.3265  -0.9900   7.5862   8.0602   8.5433   8.7170   8.9824
     9.2781  10.2428  10.3952  10.5076  17.1086  17.2085  17.7918  18.3140

          k = 0.2500 0.4167 0.4167     band energies (ev):

   -37.4747 -16.3026 -14.8861 -14.8814 -14.7859  -4.8099  -4.4338  -4.3280
    -1.7387  -1.5546  -1.3068   7.6586   7.8853   8.5998   8.6643   8.6693
     9.2531  10.3356  10.4370  10.8991  17.2077  17.6390  17.6404  19.9195

          k = 0.4167 0.4167 0.4167     band energies (ev):

   -37.4733 -16.2666 -14.8804 -14.8803 -14.8799  -4.3954  -4.1960  -4.1955
    -1.9914  -1.9909  -1.7689   7.5271   8.4826   8.6663   8.6812   8.7427
     8.7431  10.8286  10.8313  10.9764  16.8219  16.8427  16.8457  20.4695

     highest occupied, lowest unoccupied level (ev):    11.1351   14.7349

!    total energy              =    -264.39610321 Ry
     Harris-Foulkes estimate   =    -265.45064068 Ry
     estimated scf accuracy    <       1.81353775 Ry

     The total energy is the sum of the following terms:

     one-electron contribution =     -62.96287085 Ry
     hartree contribution      =      49.55118355 Ry
     xc contribution           =     -42.43387644 Ry
     ewald contribution        =    -211.91466263 Ry
     scf correction            =       3.36412317 Ry

     iteration # 11     ecut=   100.00 Ry     beta=0.60
     Davidson diagonalization with overlap
     ethr =  2.43E-03,  avg # of iterations =  4.0

     negative rho (up, down):  6.344E-02 0.000E+00

     total cpu time spent up to now is        5.4 secs

     total energy              =    -277.37171350 Ry
     Harris-Foulkes estimate   =    -271.05500956 Ry
     estimated scf accuracy    <      50.82985984 Ry

     iteration # 12     ecut=   100.00 Ry     beta=0.60
     Davidson diagonalization with overlap
     ethr =  2.43E-03,  avg # of iterations =  5.0

     negative rho (up, down):  8.149E-01 0.000E+00

     total cpu time spent up to now is        5.7 secs

     total energy              =    -296.47078634 Ry
     Harris-Foulkes estimate   =    -279.81426054 Ry
     estimated scf accuracy    <      80.81796720 Ry

     iteration # 13     ecut=   100.00 Ry     beta=0.60
     Davidson diagonalization with overlap
     ethr =  2.43E-03,  avg # of iterations =  5.4

     negative rho (up, down):  7.507E-02 0.000E+00

     total cpu time spent up to now is        6.1 secs

     total energy              =    -275.98920008 Ry
     Harris-Foulkes estimate   =    -298.39552500 Ry
     estimated scf accuracy    <     118.67916135 Ry

     iteration # 14     ecut=   100.00 Ry     beta=0.60
     Davidson diagonalization with overlap
     ethr =  2.43E-03,  avg # of iterations =  4.2

     negative rho (up, down):  8.427E-03 0.000E+00

     total cpu time spent up to now is        6.4 secs

     total energy              =    -266.41185161 Ry
     Harris-Foulkes estimate   =    -277.31713300 Ry
     estimated scf accuracy    <      73.77477521 Ry

     iteration # 15     ecut=   100.00 Ry     beta=0.60
     Davidson diagonalization with overlap
     ethr =  2.43E-03,  avg # of iterations =  3.9

     negative rho (up, down):  4.701E-03 0.000E+00

     total cpu time spent up to now is        6.7 secs

     total energy              =    -267.36607109 Ry
     Harris-Foulkes estimate   =    -267.58909127 Ry
     estimated scf accuracy    <      30.10031515 Ry

     iteration # 16     ecut=   100.00 Ry     beta=0.60
     Davidson diagonalization with overlap
     ethr =  2.43E-03,  avg # of iterations =  1.0

     negative rho (up, down):  8.205E-07 0.000E+00

     total cpu time spent up to now is        6.9 secs

     total energy              =    -256.78109430 Ry
     Harris-Foulkes estimate   =    -267.38953155 Ry
     estimated scf accuracy    <      28.65598608 Ry

     iteration # 17     ecut=   100.00 Ry     beta=0.60
     Davidson diagonalization with overlap
     c_bands:  2 eigenvalues not converged
     ethr =  2.43E-03,  avg # of iterations = 10.7

     negative rho (up, down):  1.022E-07 0.000E+00

     total cpu time spent up to now is        7.4 secs

     total energy              =    -262.85362716 Ry
     Harris-Foulkes estimate   =    -267.41999271 Ry
     estimated scf accuracy    <      19.15553371 Ry

     iteration # 18     ecut=   100.00 Ry     beta=0.60
     Davidson diagonalization with overlap
     ethr =  2.43E-03,  avg # of iterations =  4.5

     negative rho (up, down):  4.835E-08 0.000E+00

     total cpu time spent up to now is        7.7 secs

     total energy              =    -264.87154651 Ry
     Harris-Foulkes estimate   =    -265.66433886 Ry
     estimated scf accuracy    <       2.18812589 Ry

     iteration # 19     ecut=   100.00 Ry     beta=0.60
     Davidson diagonalization with overlap
     ethr =  2.43E-03,  avg # of iterations =  5.8

     negative rho (up, down):  1.582E-02 0.000E+00

     total cpu time spent up to now is        8.0 secs

     total energy              =    -264.64895513 Ry
     Harris-Foulkes estimate   =    -265.00828223 Ry
     estimated scf accuracy    <       0.83037965 Ry

     iteration # 20     ecut=   100.00 Ry     beta=0.60
     Davidson diagonalization with overlap
     ethr =  2.08E-03,  avg # of iterations =  4.1

     negative rho (up, down):  2.027E-08 0.000E+00

     total cpu time spent up to now is        8.3 secs

          k = 0.0833 0.0833 0.0833     band energies (ev):

   -48.6444 -25.1342 -25.1341 -25.1340 -10.2578  -6.3699  -6.1598  -6.1596
     3.8127   3.8130   4.0187   7.6636   7.6652   7.6917   8.4120   8.4149
     9.0569   9.2622   9.9252   9.9293  10.3709  10.4169  10.4231  12.4231

          k = 0.0833 0.0833 0.2500     band energies (ev):

   -48.6439 -25.1551 -25.1332 -25.1331 -10.0798  -6.6019  -6.1427  -5.9459
     3.9028   3.9144   4.3306   6.3226   7.3187   7.4120   7.9290   8.1518
     8.6755   8.8928   9.5125   9.6333  10.3678  11.1925  11.2572  12.4225

          k = 0.0833 0.0833 0.4167     band energies (ev):

   -48.6434 -25.1761 -25.1323 -25.1322  -9.8729  -6.9116  -6.1254  -5.6531
     4.0204   4.1737   4.4249   5.3531   6.9881   7.0675   7.4325   8.1707
     8.6343   8.6641   9.1103   9.1738  10.3217  11.9131  11.9709  12.4064

          k = 0.0833 0.2500 0.2500     band energies (ev):

   -48.6434 -25.1543 -25.1539 -25.1322  -9.9331  -6.5658  -6.0492  -5.9970
     3.7318   3.9131   4.6525   6.0479   6.1601   7.0262   7.5765   7.6612
     8.3080   9.0110   9.2938  10.0373  11.1799  11.2991  11.5305  13.0697

          k = 0.0833 0.2500 0.4167     band energies (ev):

   -48.6429 -25.1749 -25.1530 -25.1313  -9.7685  -6.6983  -6.0443  -5.7830
     3.7424   3.9655   4.6886   5.0556   6.0155   6.4615   7.0885   7.7543
     8.1628   9.0554   9.3179   9.8835  11.2689  11.9056  12.0383  13.1772

          k = 0.0833 0.4167 0.4167     band energies (ev):

   -48.6424 -25.1738 -25.1737 -25.1304  -9.6555  -6.5225  -5.9286  -5.8968
     3.6860   3.7435   4.6422   4.9488   4.9731   6.1306   7.0810   7.2113
     7.7061   9.6565   9.7788  10.1277  11.8993  11.9488  12.2656  13.4109

          k = 0.2500 0.2500 0.2500     band energies (ev):

   -48.6429 -25.1534 -25.1529 -25.1529  -9.8127  -6.4105  -6.0163  -6.0162
     3.4398   3.4401   4.9404   5.8924   5.9997   6.0011   7.0550   7.9051
     7.9081   9.5390   9.6051   9.6089  11.5523  11.7513  11.7718  14.5443

          k = 0.2500 0.2500 0.4167     band energies (ev):

   -48.6424 -25.1737 -25.1522 -25.1519  -9.6815  -6.4472  -5.9827  -5.8316
     3.1651   3.4159   4.3409   4.9736   5.9246   6.1391   6.7467   8.0085
     8.2212   9.2582   9.6291   9.7740  11.8277  12.1326  12.2303  14.5128

          k = 0.2500 0.4167 0.4167     band energies (ev):

   -48.6419 -25.1727 -25.1725 -25.1511  -9.5894  -6.2319  -5.8786  -5.8685
     2.9615   3.0317   3.5686   4.9457   4.9754   6.1099   7.2688   7.8985
     8.1583   9.6363   9.8093  10.0363  12.3053  12.3409  12.4698  14.9888

          k = 0.4167 0.4167 0.4167     band energies (ev):

   -48.6414 -25.1717 -25.1716 -25.1715  -9.5207  -5.9278  -5.8269  -5.8269
     2.5354   2.5355   2.7739   4.9422   4.9425   5.0455   8.0568   8.3659
     8.3664   9.9814   9.9847  10.0749  12.6605  12.6945  12.6994  16.2579

     highest occupied, lowest unoccupied level (ev):    10.1277   10.3217

!    total energy              =    -264.24325482 Ry
     Harris-Foulkes estimate   =    -265.17101617 Ry
     estimated scf accuracy    <       1.95185001 Ry

     The total energy is the sum of the following terms:

     one-electron contribution =     -75.67491800 Ry
     hartree contribution      =      59.32599069 Ry
     xc contribution           =     -42.85407159 Ry
     ewald contribution        =    -211.91466263 Ry
     scf correction            =       6.87440672 Ry

     iteration # 21     ecut=   100.00 Ry     beta=0.60
     Davidson diagonalization with overlap
     ethr =  2.08E-03,  avg # of iterations =  3.2

     negative rho (up, down):  2.353E-08 0.000E+00

     total cpu time spent up to now is        8.6 secs

     total energy              =    -264.84149262 Ry
     Harris-Foulkes estimate   =    -264.87869266 Ry
     estimated scf accuracy    <       0.29789726 Ry

     iteration # 22     ecut=   100.00 Ry     beta=0.60
     Davidson diagonalization with overlap
     ethr =  7.45E-04,  avg # of iterations =  1.7

     total cpu time spent up to now is        8.8 secs

     total energy              =    -264.78674273 Ry
     Harris-Foulkes estimate   =    -264.84700274 Ry
     estimated scf accuracy    <       0.19304906 Ry

     iteration # 23     ecut=   100.00 Ry     beta=0.60
     Davidson diagonalization with overlap
     ethr =  4.83E-04,  avg # of iterations =  3.2

     total cpu time spent up to now is        9.0 secs

     total energy              =    -264.80722844 Ry
     Harris-Foulkes estimate   =    -264.80962653 Ry
     estimated scf accuracy    <       0.01352644 Ry

     iteration # 24     ecut=   100.00 Ry     beta=0.60
     Davidson diagonalization with overlap
     ethr =  3.38E-05,  avg # of iterations =  4.5

     total cpu time spent up to now is        9.3 secs

     total energy              =    -264.80957280 Ry
     Harris-Foulkes estimate   =    -264.81215058 Ry
     estimated scf accuracy    <       0.01700306 Ry

     iteration # 25     ecut=   100.00 Ry     beta=0.60
     Davidson diagonalization with overlap
     ethr =  3.38E-05,  avg # of iterations =  1.0

     negative rho (up, down):  1.158E-08 0.000E+00

     total cpu time spent up to now is        9.5 secs

     total energy              =    -264.80569914 Ry
     Harris-Foulkes estimate   =    -264.80976512 Ry
     estimated scf accuracy    <       0.01262443 Ry

     iteration # 26     ecut=   100.00 Ry     beta=0.60
     Davidson diagonalization with overlap
     ethr =  3.16E-05,  avg # of iterations =  2.8

     total cpu time spent up to now is        9.7 secs

     total energy              =    -264.80533968 Ry
     Harris-Foulkes estimate   =    -264.80765291 Ry
     estimated scf accuracy    <       0.00479686 Ry

     iteration # 27     ecut=   100.00 Ry     beta=0.60
     Davidson diagonalization with overlap
     ethr =  1.20E-05,  avg # of iterations =  3.1

     negative rho (up, down):  1.106E-08 0.000E+00

     total cpu time spent up to now is       10.0 secs

     total energy              =    -264.80557813 Ry
     Harris-Foulkes estimate   =    -264.80673735 Ry
     estimated scf accuracy    <       0.00268514 Ry

     iteration # 28     ecut=   100.00 Ry     beta=0.60
     Davidson diagonalization with overlap
     ethr =  6.71E-06,  avg # of iterations =  3.5

     total cpu time spent up to now is       10.2 secs

     total energy              =    -264.80611432 Ry
     Harris-Foulkes estimate   =    -264.80613978 Ry
     estimated scf accuracy    <       0.00006145 Ry

     iteration # 29     ecut=   100.00 Ry     beta=0.60
     Davidson diagonalization with overlap
     ethr =  1.54E-07,  avg # of iterations =  5.3

     total cpu time spent up to now is       10.6 secs

     total energy              =    -264.80618547 Ry
     Harris-Foulkes estimate   =    -264.80619120 Ry
     estimated scf accuracy    <       0.00001697 Ry

     iteration # 30     ecut=   100.00 Ry     beta=0.60
     Davidson diagonalization with overlap
     ethr =  4.24E-08,  avg # of iterations =  2.0

     total cpu time spent up to now is       10.8 secs

          k = 0.0833 0.0833 0.0833     band energies (ev):

   -44.6917 -21.2922 -21.2916 -21.2916 -13.7050  -5.7491  -5.0443  -5.0443
     1.2465   1.2465   1.4040   8.3826   8.6057   8.6057   9.3355   9.3355
     9.7753  10.3864  10.7152  10.7152  13.0685  13.1269  13.1269  15.7508

          k = 0.0833 0.0833 0.2500     band energies (ev):

   -44.6911 -21.3244 -21.2905 -21.2903 -13.6363  -5.8390  -5.0198  -4.9296
     1.3011   1.3212   1.6332   7.6289   8.3025   8.3844   8.8730   8.8853
     9.6436   9.7002  10.4030  10.4059  13.1653  13.9194  13.9301  15.7606

          k = 0.0833 0.0833 0.4167     band energies (ev):

   -44.6904 -21.3565 -21.2891 -21.2889 -13.5654  -6.0178  -4.9949  -4.6954
     1.3566   1.4979   1.7512   6.8591   8.0338   8.1075   8.3081   8.6541
     9.4209   9.5948  10.0364  10.1444  13.2297  14.6768  14.6861  15.7590

          k = 0.0833 0.2500 0.2500     band energies (ev):

   -44.6904 -21.3232 -21.3217 -21.2890 -13.5791  -5.7395  -4.9962  -4.9274
     1.2197   1.3219   1.7512   7.2802   7.8463   8.0248   8.4433   8.6293
     9.2457   9.9407  10.0158  10.4930  13.9047  14.0449  14.2790  16.2848

          k = 0.0833 0.2500 0.4167     band energies (ev):

   -44.6897 -21.3541 -21.3205 -21.2876 -13.5205  -5.7587  -4.9477  -4.8094
     1.2201   1.4186   1.6756   6.7696   7.3754   7.6788   8.1195   8.4902
     9.3629   9.7064   9.9061  10.4617  14.0212  14.7132  14.8310  16.3859

          k = 0.0833 0.4167 0.4167     band energies (ev):

   -44.6891 -21.3519 -21.3515 -21.2863 -13.4744  -5.4810  -4.9433  -4.8869
     1.1901   1.2392   1.6386   6.5998   6.8896   7.0092   8.1254   8.1420
     9.1442   9.9694  10.1415  10.8153  14.7254  14.7606  15.1489  16.5833

          k = 0.2500 0.2500 0.2500     band energies (ev):

   -44.6897 -21.3219 -21.3201 -21.3201 -13.5292  -5.5625  -4.9365  -4.9365
     1.0396   1.0396   1.8231   7.0405   7.7885   7.7885   8.3312   8.4993
     8.4993  10.2453  10.2453  10.2849  14.4035  14.4035  14.4061  17.5519

          k = 0.2500 0.2500 0.4167     band energies (ev):

   -44.6891 -21.3521 -21.3194 -21.3186 -13.4780  -5.4880  -4.8742  -4.8300
     0.8586   1.0700   1.5500   6.7456   7.3913   7.7547   7.8162   8.4955
     8.6769  10.0126  10.3580  10.3905  14.5184  14.9170  14.9632  17.5176

          k = 0.2500 0.4167 0.4167     band energies (ev):

   -44.6884 -21.3501 -21.3498 -21.3174 -13.4347  -5.1938  -4.8478  -4.8136
     0.7412   0.7973   1.1549   6.6163   7.0113   7.6045   7.8629   8.4311
     8.5334  10.2813  10.4032  10.8071  15.0445  15.0576  15.2777  17.8601

          k = 0.4167 0.4167 0.4167     band energies (ev):

   -44.6878 -21.3484 -21.3481 -21.3481 -13.3943  -4.8781  -4.7445  -4.7445
     0.4302   0.4302   0.6239   6.4908   7.0170   7.0170   8.3113   8.5955
     8.5955  10.7459  10.7459  10.8522  15.4123  15.4123  15.4176  18.3781

     highest occupied, lowest unoccupied level (ev):    10.8522   13.0685

!    total energy              =    -264.80618614 Ry
     Harris-Foulkes estimate   =    -264.80618700 Ry
     estimated scf accuracy    <       0.00000204 Ry

     The total energy is the sum of the following terms:

     one-electron contribution =     -68.19947114 Ry
     hartree contribution      =      58.11933974 Ry
     xc contribution           =     -42.80452829 Ry
     ewald contribution        =    -211.91466263 Ry
     scf correction            =      -0.00686382 Ry

     iteration # 31     ecut=   100.00 Ry     beta=0.60
     Davidson diagonalization with overlap
     ethr =  5.11E-09,  avg # of iterations =  3.7

     total cpu time spent up to now is       11.1 secs

     total energy              =    -264.80618660 Ry
     Harris-Foulkes estimate   =    -264.80618681 Ry
     estimated scf accuracy    <       0.00000059 Ry

     iteration # 32     ecut=   100.00 Ry     beta=0.60
     Davidson diagonalization with overlap
     ethr =  1.49E-09,  avg # of iterations =  3.1

     total cpu time spent up to now is       11.3 secs

     total energy              =    -264.80618670 Ry
     Harris-Foulkes estimate   =    -264.80618672 Ry
     estimated scf accuracy    <       0.00000005 Ry

     iteration # 33     ecut=   100.00 Ry     beta=0.60
     Davidson diagonalization with overlap
     ethr =  1.29E-10,  avg # of iterations =  5.4

     total cpu time spent up to now is       11.7 secs

     total energy              =    -264.80618672 Ry
     Harris-Foulkes estimate   =    -264.80618672 Ry
     estimated scf accuracy    <          7.2E-09 Ry

     iteration # 34     ecut=   100.00 Ry     beta=0.60
     Davidson diagonalization with overlap
     ethr =  1.80E-11,  avg # of iterations =  3.2

     total cpu time spent up to now is       12.0 secs

     total energy              =    -264.80618672 Ry
     Harris-Foulkes estimate   =    -264.80618672 Ry
     estimated scf accuracy    <          2.1E-10 Ry

     iteration # 35     ecut=   100.00 Ry     beta=0.60
     Davidson diagonalization with overlap
     ethr =  5.31E-13,  avg # of iterations =  5.0

     total cpu time spent up to now is       12.3 secs

     total energy              =    -264.80618672 Ry
     Harris-Foulkes estimate   =    -264.80618672 Ry
     estimated scf accuracy    <          4.6E-11 Ry

     iteration # 36     ecut=   100.00 Ry     beta=0.60
     Davidson diagonalization with overlap
     ethr =  1.14E-13,  avg # of iterations =  2.9

     total cpu time spent up to now is       12.6 secs

     End of self-consistent calculation

          k = 0.0833 0.0833 0.0833 (  6850 PWs)   bands (ev):

   -44.6940 -21.2945 -21.2939 -21.2939 -13.7009  -5.7514  -5.0472  -5.0472
     1.2496   1.2496   1.4071   8.3807   8.6038   8.6038   9.3331   9.3331
     9.7726  10.3838  10.7125  10.7125  13.0666  13.1250  13.1250  15.7485

          k = 0.0833 0.0833 0.2500 (  6839 PWs)   bands (ev):

   -44.6933 -21.3267 -21.2928 -21.2926 -13.6321  -5.8414  -5.0226  -4.9324
     1.3043   1.3243   1.6364   7.6268   8.3005   8.3823   8.8710   8.8831
     9.6411   9.6977  10.4004  10.4034  13.1634  13.9174  13.9280  15.7583

          k = 0.0833 0.0833 0.4167 (  6839 PWs)   bands (ev):

   -44.6927 -21.3588 -21.2914 -21.2912 -13.5611  -6.0201  -4.9978  -4.6981
     1.3598   1.5012   1.7542   6.8568   8.0317   8.1053   8.3060   8.6524
     9.4186   9.5924  10.0339  10.1417  13.2277  14.6745  14.6838  15.7567

          k = 0.0833 0.2500 0.2500 (  6847 PWs)   bands (ev):

   -44.6927 -21.3255 -21.3240 -21.2913 -13.5749  -5.7419  -4.9989  -4.9302
     1.2227   1.3251   1.7545   7.2781   7.8440   8.0227   8.4414   8.6271
     9.2433   9.9382  10.0133  10.4905  13.9026  14.0427  14.2772  16.2824

          k = 0.0833 0.2500 0.4167 (  6833 PWs)   bands (ev):

   -44.6920 -21.3564 -21.3228 -21.2899 -13.5162  -5.7611  -4.9506  -4.8121
     1.2231   1.4216   1.6789   6.7673   7.3734   7.6766   8.1174   8.4884
     9.3606   9.7040   9.9036  10.4591  14.0190  14.7109  14.8290  16.3836

          k = 0.0833 0.4167 0.4167 (  6854 PWs)   bands (ev):

   -44.6913 -21.3542 -21.3538 -21.2886 -13.4701  -5.4836  -4.9458  -4.8896
     1.1929   1.2421   1.6421   6.5976   6.8879   7.0068   8.1234   8.1400
     9.1417   9.9672  10.1392  10.8125  14.7231  14.7583  15.1469  16.5810

          k = 0.2500 0.2500 0.2500 (  6881 PWs)   bands (ev):

   -44.6920 -21.3242 -21.3224 -21.3224 -13.5249  -5.5649  -4.9393  -4.9393
     1.0425   1.0425   1.8264   7.0385   7.7861   7.7861   8.3289   8.4976
     8.4976  10.2427  10.2427  10.2821  14.4015  14.4015  14.4040  17.5494

          k = 0.2500 0.2500 0.4167 (  6839 PWs)   bands (ev):

   -44.6913 -21.3544 -21.3217 -21.3209 -13.4737  -5.4905  -4.8770  -4.8327
     0.8615   1.0728   1.5532   6.7433   7.3893   7.7523   7.8141   8.4941
     8.6751  10.0100  10.3555  10.3877  14.5162  14.9148  14.9610  17.5151

          k = 0.2500 0.4167 0.4167 (  6851 PWs)   bands (ev):

   -44.6907 -21.3524 -21.3521 -21.3197 -13.4304  -5.1964  -4.8505  -4.8164
     0.7440   0.8000   1.1578   6.6141   7.0088   7.6029   7.8607   8.4296
     8.5320  10.2786  10.4006  10.8041  15.0422  15.0554  15.2756  17.8581

          k = 0.4167 0.4167 0.4167 (  6854 PWs)   bands (ev):

   -44.6900 -21.3507 -21.3504 -21.3504 -13.3899  -4.8808  -4.7473  -4.7473
     0.4329   0.4329   0.6265   6.4886   7.0146   7.0146   8.3100   8.5943
     8.5943  10.7430  10.7430  10.8492  15.4100  15.4100  15.4154  18.3788

     highest occupied, lowest unoccupied level (ev):    10.8492   13.0666

!    total energy              =    -264.80618672 Ry
     Harris-Foulkes estimate   =    -264.80618672 Ry
     estimated scf accuracy    <          4.3E-13 Ry

     The total energy is the sum of the following terms:

     one-electron contribution =     -68.20450049 Ry
     hartree contribution      =      58.11722803 Ry
     xc contribution           =     -42.80425163 Ry
     ewald contribution        =    -211.91466263 Ry

     convergence has been achieved in  36 iterations

     Forces acting on atoms (cartesian axes, Ry/au):

     atom    1 type  3   force =     0.00000000   -0.00000000    0.00000000
     atom    2 type  2   force =     0.00000000    0.00000000    0.00000000
     atom    3 type  1   force =     0.00000000    0.00000000    0.00000000
     atom    4 type  1   force =     0.00000000    0.00000000    0.00000000
     atom    5 type  1   force =     0.00000000    0.00000000    0.00000000

     Total force =     0.000000     Total SCF correction =     0.000000


     Computing stress (Cartesian axis) and pressure

          total   stress  (Ry/bohr**3)                   (kbar)     P=   28.77
   0.00019561   0.00000000   0.00000000         28.77      0.00      0.00
   0.00000000   0.00019561   0.00000000          0.00     28.77      0.00
   0.00000000   0.00000000   0.00019561          0.00      0.00     28.77


     Writing output data file bto.save
 
     init_run     :      0.22s CPU      0.74s WALL (       1 calls)
     electrons    :     10.67s CPU     11.01s WALL (       1 calls)
     forces       :      0.06s CPU      0.07s WALL (       1 calls)
     stress       :      0.16s CPU      0.17s WALL (       1 calls)

     Called by init_run:
     wfcinit      :      0.05s CPU      0.11s WALL (       1 calls)
     potinit      :      0.02s CPU      0.05s WALL (       1 calls)

     Called by electrons:
     c_bands      :      8.11s CPU      8.25s WALL (      36 calls)
     sum_band     :      1.72s CPU      1.77s WALL (      36 calls)
     v_of_rho     :      0.05s CPU      0.06s WALL (      37 calls)
     newd         :      0.70s CPU      0.72s WALL (      37 calls)
     mix_rho      :      0.06s CPU      0.08s WALL (      36 calls)

     Called by c_bands:
     init_us_2    :      0.09s CPU      0.09s WALL (     750 calls)
     cegterg      :      7.66s CPU      7.81s WALL (     360 calls)

     Called by sum_band:
     sum_band:bec :      0.00s CPU      0.00s WALL (     360 calls)
     addusdens    :      0.83s CPU      0.84s WALL (      36 calls)

     Called by *egterg:
     h_psi        :      4.30s CPU      4.44s WALL (    1841 calls)
     s_psi        :      0.15s CPU      0.14s WALL (    1841 calls)
     g_psi        :      0.02s CPU      0.03s WALL (    1471 calls)
     cdiaghg      :      2.07s CPU      2.11s WALL (    1831 calls)

     Called by h_psi:
     h_psi:pot    :      4.29s CPU      4.42s WALL (    1841 calls)
     h_psi:calbec :      0.31s CPU      0.28s WALL (    1841 calls)
     vloc_psi     :      3.86s CPU      3.98s WALL (    1841 calls)
     add_vuspsi   :      0.12s CPU      0.15s WALL (    1841 calls)

     General routines
     calbec       :      0.40s CPU      0.36s WALL (    2251 calls)
     fft          :      0.14s CPU      0.37s WALL (     334 calls)
     ffts         :      0.01s CPU      0.01s WALL (      73 calls)
     fftw         :      3.99s CPU      4.08s WALL (   62642 calls)
     interpolate  :      0.04s CPU      0.04s WALL (      73 calls)
     davcio       :      0.00s CPU      0.00s WALL (      10 calls)
 
     Parallel routines
     fft_scatter  :      2.25s CPU      2.25s WALL (   63049 calls)
 
     PWSCF        :    11.31s CPU        13.21s WALL

 
   This run was terminated on:  18:56:31  30Dec2017            

=------------------------------------------------------------------------------=
   JOB DONE.
=------------------------------------------------------------------------------=
