
     Program PWSCF v.6.1 (svn rev. 13369) starts on 30Dec2017 at 18:56:40 

     This program is part of the open-source Quantum ESPRESSO suite
     for quantum simulation of materials; please cite
         "P. Giannozzi et al., J. Phys.:Condens. Matter 21 395502 (2009);
          URL http://www.quantum-espresso.org", 
     in publications or presentations arising from this work. More details at
     http://www.quantum-espresso.org/quote

     Parallel version (MPI), running on    28 processors
     R & G space division:  proc/nbgrp/npool/nimage =      28
     Waiting for input...
     Reading input from standard input

     Current dimensions of program PWSCF are:
     Max number of different atomic species (ntypx) = 10
     Max number of k-points (npk) =  40000
     Max angular momentum in pseudopotentials (lmaxx) =  3

     Subspace diagonalization in iterative solution of the eigenvalue problem:
     a serial algorithm will be used

 
     Parallelization info
     --------------------
     sticks:   dense  smooth     PW     G-vecs:    dense   smooth      PW
     Min          49      24      7                 1396      492      81
     Max          50      25      8                 1398      497      84
     Sum        1389     697    213                39127    13805    2301
 

     Title: 
     cubic BaTiO3 at 7.40 lattice parameter. xc=PZ                              


     bravais-lattice index     =            1
     lattice parameter (alat)  =       7.4000  a.u.
     unit-cell volume          =     405.2240 (a.u.)^3
     number of atoms/cell      =            5
     number of atomic types    =            3
     number of electrons       =        40.00
     number of Kohn-Sham states=           24
     kinetic-energy cutoff     =      40.0000  Ry
     charge density cutoff     =     320.0000  Ry
     convergence threshold     =      1.0E-12
     mixing beta               =       0.6000
     number of iterations used =            8  plain     mixing
     Exchange-correlation      = SLA-PZ-NOGX-NOGC ( 1  1  0  0 0 0)

     celldm(1)=   7.400000  celldm(2)=   0.000000  celldm(3)=   0.000000
     celldm(4)=   0.000000  celldm(5)=   0.000000  celldm(6)=   0.000000

     crystal axes: (cart. coord. in units of alat)
               a(1) = (   1.000000   0.000000   0.000000 )  
               a(2) = (   0.000000   1.000000   0.000000 )  
               a(3) = (   0.000000   0.000000   1.000000 )  

     reciprocal axes: (cart. coord. in units 2 pi/alat)
               b(1) = (  1.000000  0.000000  0.000000 )  
               b(2) = (  0.000000  1.000000  0.000000 )  
               b(3) = (  0.000000  0.000000  1.000000 )  


     PseudoPot. # 1 for O  read from file:
     ../../PSP_DIR/O.pz-van_ak.UPF
     MD5 check sum: d814fcb982dd9af4fc6452aae6bb9318
     Pseudo is Ultrasoft, Zval =  6.0
     Generated by new atomic code, or converted to UPF format
     Using radial grid of  737 points,  4 beta functions with: 
                l(1) =   0
                l(2) =   0
                l(3) =   1
                l(4) =   1
     Q(r) pseudized with  8 coefficients,  rinner =    0.800   0.800   0.800


     PseudoPot. # 2 for Ti read from file:
     ../../PSP_DIR/Ti.pz-sp-van_ak.UPF
     MD5 check sum: 545d0e6e05332b8871a8093f427cb0ca
     Pseudo is Ultrasoft, Zval = 12.0
     Generated by new atomic code, or converted to UPF format
     Using radial grid of  851 points,  6 beta functions with: 
                l(1) =   0
                l(2) =   0
                l(3) =   1
                l(4) =   1
                l(5) =   2
                l(6) =   2
     Q(r) pseudized with  8 coefficients,  rinner =    1.000   1.000   1.000
                                                       1.000   1.000

     PseudoPot. # 3 for Ba read from file:
     ../../PSP_DIR/Ba.pz-sp-hgh.UPF
     MD5 check sum: 155c4e4bbe33bd45901c985a874b3acf
     Pseudo is Norm-conserving, Zval = 10.0
     Generated in analytical, separable form
     Using radial grid of 1251 points,  6 beta functions with: 
                l(1) =   0
                l(2) =   0
                l(3) =   1
                l(4) =   1
                l(5) =   2
                l(6) =   3

     atomic species   valence    mass     pseudopotential
        O              6.00    15.99000     O ( 1.00)
        Ti            12.00    47.88000     Ti( 1.00)
        Ba            10.00   137.33000     Ba( 1.00)

     48 Sym. Ops., with inversion, found



   Cartesian axes

     site n.     atom                  positions (alat units)
         1           Ba  tau(   1) = (   0.0000000   0.0000000   0.0000000  )
         2           Ti  tau(   2) = (   0.5000000   0.5000000   0.5000000  )
         3           O   tau(   3) = (   0.0000000   0.5000000   0.5000000  )
         4           O   tau(   4) = (   0.5000000   0.0000000   0.5000000  )
         5           O   tau(   5) = (   0.5000000   0.5000000   0.0000000  )

     number of k points=    10
                       cart. coord. in units 2pi/alat
        k(    1) = (   0.0833333   0.0833333   0.0833333), wk =   0.0740741
        k(    2) = (   0.0833333   0.0833333   0.2500000), wk =   0.2222222
        k(    3) = (   0.0833333   0.0833333   0.4166667), wk =   0.2222222
        k(    4) = (   0.0833333   0.2500000   0.2500000), wk =   0.2222222
        k(    5) = (   0.0833333   0.2500000   0.4166667), wk =   0.4444444
        k(    6) = (   0.0833333   0.4166667   0.4166667), wk =   0.2222222
        k(    7) = (   0.2500000   0.2500000   0.2500000), wk =   0.0740741
        k(    8) = (   0.2500000   0.2500000   0.4166667), wk =   0.2222222
        k(    9) = (   0.2500000   0.4166667   0.4166667), wk =   0.2222222
        k(   10) = (   0.4166667   0.4166667   0.4166667), wk =   0.0740741

     Dense  grid:    39127 G-vectors     FFT dimensions: (  45,  45,  45)

     Smooth grid:    13805 G-vectors     FFT dimensions: (  30,  30,  30)

     Estimated max dynamical RAM per process >       1.66MB

     Estimated total allocated dynamical RAM >      46.47MB

     Initial potential from superposition of free atoms

     starting charge   28.99996, renormalised to   40.00000
     Starting wfc are   22 randomized atomic wfcs +    2 random wfc

     total cpu time spent up to now is        0.3 secs

     per-process dynamical memory:    30.2 Mb

     Self-consistent Calculation

     iteration #  1     ecut=    40.00 Ry     beta=0.60
     Davidson diagonalization with overlap
     ethr =  1.00E-02,  avg # of iterations = 11.0

     total cpu time spent up to now is        0.7 secs

     total energy              =       0.69627985 Ry
     Harris-Foulkes estimate   =    -358.14816929 Ry
     estimated scf accuracy    <     476.27279633 Ry

     iteration #  2     ecut=    40.00 Ry     beta=0.60
     Davidson diagonalization with overlap
     ethr =  1.00E-02,  avg # of iterations =  7.5

     total cpu time spent up to now is        1.0 secs

     total energy              =    -271.67698773 Ry
     Harris-Foulkes estimate   =    -417.53873097 Ry
     estimated scf accuracy    <     274.56428094 Ry

     iteration #  3     ecut=    40.00 Ry     beta=0.60
     Davidson diagonalization with overlap
     ethr =  1.00E-02,  avg # of iterations =  4.4

     total cpu time spent up to now is        1.2 secs

     total energy              =    -268.81448164 Ry
     Harris-Foulkes estimate   =    -287.61587443 Ry
     estimated scf accuracy    <      64.24718518 Ry

     iteration #  4     ecut=    40.00 Ry     beta=0.60
     Davidson diagonalization with overlap
     ethr =  1.00E-02,  avg # of iterations =  3.8

     total cpu time spent up to now is        1.4 secs

     total energy              =    -265.76630242 Ry
     Harris-Foulkes estimate   =    -270.91587894 Ry
     estimated scf accuracy    <      24.68977551 Ry

     iteration #  5     ecut=    40.00 Ry     beta=0.60
     Davidson diagonalization with overlap
     ethr =  1.00E-02,  avg # of iterations =  2.9

     total cpu time spent up to now is        1.5 secs

     total energy              =    -267.06865640 Ry
     Harris-Foulkes estimate   =    -267.11103831 Ry
     estimated scf accuracy    <       6.27604203 Ry

     iteration #  6     ecut=    40.00 Ry     beta=0.60
     Davidson diagonalization with overlap
     ethr =  1.00E-02,  avg # of iterations =  1.0

     total cpu time spent up to now is        1.6 secs

     total energy              =    -266.78369143 Ry
     Harris-Foulkes estimate   =    -267.07977310 Ry
     estimated scf accuracy    <       6.15780263 Ry

     iteration #  7     ecut=    40.00 Ry     beta=0.60
     Davidson diagonalization with overlap
     ethr =  1.00E-02,  avg # of iterations =  1.0

     negative rho (up, down):  2.382E-07 0.000E+00

     total cpu time spent up to now is        1.7 secs

     total energy              =    -266.40049470 Ry
     Harris-Foulkes estimate   =    -266.80032296 Ry
     estimated scf accuracy    <       5.34597413 Ry

     iteration #  8     ecut=    40.00 Ry     beta=0.60
     Davidson diagonalization with overlap
     ethr =  1.00E-02,  avg # of iterations =  1.1

     total cpu time spent up to now is        1.8 secs

     total energy              =    -266.09380983 Ry
     Harris-Foulkes estimate   =    -266.50379375 Ry
     estimated scf accuracy    <       5.68241442 Ry

     iteration #  9     ecut=    40.00 Ry     beta=0.60
     Davidson diagonalization with overlap
     ethr =  1.00E-02,  avg # of iterations =  1.3

     total cpu time spent up to now is        1.8 secs

     total energy              =    -265.03547535 Ry
     Harris-Foulkes estimate   =    -266.19530747 Ry
     estimated scf accuracy    <       3.29972983 Ry

     iteration # 10     ecut=    40.00 Ry     beta=0.60
     Davidson diagonalization with overlap
     ethr =  8.25E-03,  avg # of iterations =  1.6

     total cpu time spent up to now is        1.9 secs

          k = 0.0833 0.0833 0.0833     band energies (ev):

   -47.6379 -24.2678 -24.2678 -24.2674  -9.5787  -7.3780  -7.3712  -6.5886
     4.0960   4.1001   4.3002   6.9908   7.0173   7.0808   7.5758   7.5782
     7.9112   9.0430   9.6044   9.6167  10.5518  10.6117  10.6170  12.9038

          k = 0.0833 0.0833 0.2500     band energies (ev):

   -47.6372 -24.2954 -24.2667 -24.2665  -9.2648  -7.4341  -7.3637  -6.6675
     4.1811   4.2365   4.5919   5.9798   6.5087   6.7367   7.4899   7.5514
     7.8460   8.0339   9.1372   9.3524  10.6192  11.3844  11.4012  12.8966

          k = 0.0833 0.0833 0.4167     band energies (ev):

   -47.6365 -24.3233 -24.2653 -24.2651  -8.7447  -7.9144  -7.3492  -6.5062
     4.0999   4.3996   4.8063   5.4991   6.0828   6.3591   7.0617   7.6065
     7.8322   7.8662   8.5774   8.7779  10.6390  12.0745  12.0839  12.8872

          k = 0.0833 0.2500 0.2500     band energies (ev):

   -47.6365 -24.2944 -24.2939 -24.2652  -8.9752  -7.4371  -7.2373  -6.8438
     4.0262   4.2150   4.8897   5.5131   5.6826   6.6847   6.9883   6.9888
     7.7766   8.1713   8.6997   9.5413  11.3666  11.4828  11.8149  13.4511

          k = 0.0833 0.2500 0.4167     band energies (ev):

   -47.6358 -24.3221 -24.2926 -24.2640  -8.5175  -7.7421  -7.2474  -6.7361
     4.0219   4.1345   4.5960   5.3537   5.4172   5.9358   6.3437   7.2175
     8.0635   8.2207   8.4557   9.2971  11.4488  12.1018  12.3155  13.5577

          k = 0.0833 0.4167 0.4167     band energies (ev):

   -47.6350 -24.3209 -24.3207 -24.2626  -8.1774  -7.6710  -7.0928  -6.9970
     3.9869   4.0700   4.1482   4.4926   5.0087   5.9700   6.5678   6.6034
     7.2972   8.7440   9.1121   9.4565  12.0919  12.1398  12.6380  13.7888

          k = 0.2500 0.2500 0.2500     band energies (ev):

   -47.6358 -24.2931 -24.2930 -24.2919  -8.7126  -7.2158  -7.2118  -7.0548
     3.7010   3.7070   5.0329   5.3146   5.4050   5.7532   6.6075   7.5359
     7.5431   8.3592   9.1528   9.1657  11.8787  11.9474  11.9477  14.7459

          k = 0.2500 0.2500 0.4167     band energies (ev):

   -47.6352 -24.3204 -24.2916 -24.2915  -8.3182  -7.5104  -7.1906  -6.8669
     3.3949   3.6619   4.3129   4.7234   5.2064   5.3700   6.6258   8.0081
     8.0195   8.4716   8.7498   9.0452  12.0140  12.4212  12.4285  14.7253

          k = 0.2500 0.4167 0.4167     band energies (ev):

   -47.6345 -24.3189 -24.3188 -24.2906  -8.0525  -7.3848  -7.0563  -7.0123
     3.1659   3.2520   3.7924   4.1758   4.3988   5.2844   7.4185   7.7519
     8.3817   8.7795   8.8539   9.1958  12.5175  12.5309  12.7830  15.1821

          k = 0.4167 0.4167 0.4167     band energies (ev):

   -47.6339 -24.3178 -24.3176 -24.3172  -7.9145  -7.0936  -7.0196  -7.0191
     2.7117   2.7118   2.9557   4.1209   4.3112   4.3930   8.4499   8.6633
     8.6635   8.8505   8.9323   8.9329  12.8979  12.8983  12.9072  16.3697

     highest occupied, lowest unoccupied level (ev):     9.6167   10.5518

!    total energy              =    -264.55695934 Ry
     Harris-Foulkes estimate   =    -265.21306623 Ry
     estimated scf accuracy    <       1.04635517 Ry

     The total energy is the sum of the following terms:

     one-electron contribution =     -72.20406219 Ry
     hartree contribution      =      58.13128805 Ry
     xc contribution           =     -42.87494725 Ry
     ewald contribution        =    -211.91466263 Ry
     scf correction            =       4.30542468 Ry

     iteration # 11     ecut=    40.00 Ry     beta=0.60
     Davidson diagonalization with overlap
     ethr =  2.62E-03,  avg # of iterations =  2.2

     total cpu time spent up to now is        2.1 secs

     total energy              =    -264.75647451 Ry
     Harris-Foulkes estimate   =    -264.76949643 Ry
     estimated scf accuracy    <       0.08103266 Ry

     iteration # 12     ecut=    40.00 Ry     beta=0.60
     Davidson diagonalization with overlap
     ethr =  2.03E-04,  avg # of iterations =  3.8

     total cpu time spent up to now is        2.2 secs

     total energy              =    -264.72936179 Ry
     Harris-Foulkes estimate   =    -264.79708024 Ry
     estimated scf accuracy    <       0.15346748 Ry

     iteration # 13     ecut=    40.00 Ry     beta=0.60
     Davidson diagonalization with overlap
     ethr =  2.03E-04,  avg # of iterations =  3.2

     total cpu time spent up to now is        2.3 secs

     total energy              =    -264.76024168 Ry
     Harris-Foulkes estimate   =    -264.76922240 Ry
     estimated scf accuracy    <       0.05948434 Ry

     iteration # 14     ecut=    40.00 Ry     beta=0.60
     Davidson diagonalization with overlap
     ethr =  1.49E-04,  avg # of iterations =  2.0

     total cpu time spent up to now is        2.4 secs

     total energy              =    -264.74373365 Ry
     Harris-Foulkes estimate   =    -264.76292755 Ry
     estimated scf accuracy    <       0.04638976 Ry

     iteration # 15     ecut=    40.00 Ry     beta=0.60
     Davidson diagonalization with overlap
     ethr =  1.16E-04,  avg # of iterations =  3.0

     total cpu time spent up to now is        2.6 secs

     total energy              =    -264.74962633 Ry
     Harris-Foulkes estimate   =    -264.75503312 Ry
     estimated scf accuracy    <       0.00776133 Ry

     iteration # 16     ecut=    40.00 Ry     beta=0.60
     Davidson diagonalization with overlap
     ethr =  1.94E-05,  avg # of iterations =  3.8

     total cpu time spent up to now is        2.7 secs

     total energy              =    -264.75514668 Ry
     Harris-Foulkes estimate   =    -264.75377103 Ry
     estimated scf accuracy    <       0.00321437 Ry

     iteration # 17     ecut=    40.00 Ry     beta=0.60
     Davidson diagonalization with overlap
     ethr =  8.04E-06,  avg # of iterations =  2.3

     total cpu time spent up to now is        2.8 secs

     total energy              =    -264.75356903 Ry
     Harris-Foulkes estimate   =    -264.75546869 Ry
     estimated scf accuracy    <       0.00719741 Ry

     iteration # 18     ecut=    40.00 Ry     beta=0.60
     Davidson diagonalization with overlap
     ethr =  8.04E-06,  avg # of iterations =  2.4

     total cpu time spent up to now is        2.9 secs

     total energy              =    -264.75296702 Ry
     Harris-Foulkes estimate   =    -264.75424059 Ry
     estimated scf accuracy    <       0.00618409 Ry

     iteration # 19     ecut=    40.00 Ry     beta=0.60
     Davidson diagonalization with overlap
     ethr =  8.04E-06,  avg # of iterations =  1.1

     total cpu time spent up to now is        3.0 secs

     total energy              =    -264.75303639 Ry
     Harris-Foulkes estimate   =    -264.75320433 Ry
     estimated scf accuracy    <       0.00186492 Ry

     iteration # 20     ecut=    40.00 Ry     beta=0.60
     Davidson diagonalization with overlap
     ethr =  4.66E-06,  avg # of iterations =  2.8

     total cpu time spent up to now is        3.2 secs

          k = 0.0833 0.0833 0.0833     band energies (ev):

   -44.5679 -21.1772 -21.1766 -21.1766 -13.6971  -5.7682  -5.0677  -5.0677
     1.2348   1.2348   1.3920   8.3978   8.6233   8.6233   9.3618   9.3618
     9.8082  10.3961  10.7238  10.7239  13.1563  13.2136  13.2136  15.8546

          k = 0.0833 0.0833 0.2500     band energies (ev):

   -44.5672 -21.2100 -21.1755 -21.1752 -13.6275  -5.8589  -5.0426  -4.9516
     1.2893   1.3089   1.6203   7.6506   8.3183   8.3975   8.8895   8.9082
     9.6689   9.7081  10.4123  10.4159  13.2608  14.0080  14.0206  15.8667

          k = 0.0833 0.0833 0.4167     band energies (ev):

   -44.5665 -21.2426 -21.1738 -21.1737 -13.5545  -6.0384  -5.0172  -4.7160
     1.3447   1.4854   1.7376   6.8873   8.0433   8.1155   8.3262   8.6634
     9.4416   9.6040  10.0469  10.1520  13.3352  14.7732  14.7818  15.8661

          k = 0.0833 0.2500 0.2500     band energies (ev):

   -44.5665 -21.2087 -21.2071 -21.1738 -13.5685  -5.7595  -5.0177  -4.9494
     1.2070   1.3099   1.7379   7.2969   7.8743   8.0395   8.4571   8.6463
     9.2530   9.9642  10.0300  10.4986  14.0011  14.1365  14.3696  16.3869

          k = 0.0833 0.2500 0.4167     band energies (ev):

   -44.5658 -21.2403 -21.2060 -21.1723 -13.5091  -5.7794  -4.9694  -4.8297
     1.2076   1.4055   1.6622   6.7941   7.3909   7.7005   8.1290   8.5053
     9.3751   9.7178   9.9173  10.4679  14.1195  14.8078  14.9260  16.4866

          k = 0.0833 0.4167 0.4167     band energies (ev):

   -44.5651 -21.2379 -21.2376 -21.1708 -13.4616  -5.5027  -4.9631  -4.9073
     1.1768   1.2261   1.6258   6.6201   6.9010   7.0428   8.1359   8.1529
     9.1659   9.9764  10.1532  10.8173  14.8202  14.8529  15.2458  16.6814

          k = 0.2500 0.2500 0.2500     band energies (ev):

   -44.5658 -21.2071 -21.2055 -21.2055 -13.5173  -5.5822  -4.9581  -4.9581
     1.0275   1.0275   1.8093   7.0542   7.8155   7.8155   8.3478   8.5102
     8.5102  10.2522  10.2522  10.3142  14.4943  14.4944  14.5081  17.6495

          k = 0.2500 0.2500 0.4167     band energies (ev):

   -44.5651 -21.2382 -21.2047 -21.2040 -13.4663  -5.5084  -4.8959  -4.8503
     0.8470   1.0573   1.5366   6.7690   7.4091   7.7807   7.8359   8.5053
     8.6900  10.0217  10.3604  10.4133  14.6152  15.0141  15.0586  17.6119

          k = 0.2500 0.4167 0.4167     band energies (ev):

   -44.5645 -21.2362 -21.2360 -21.2030 -13.4236  -5.2149  -4.8682  -4.8346
     0.7295   0.7850   1.1425   6.6377   7.0447   7.6175   7.8877   8.4416
     8.5449  10.2919  10.4171  10.8197  15.1407  15.1524  15.3777  17.9421

          k = 0.4167 0.4167 0.4167     band energies (ev):

   -44.5638 -21.2346 -21.2342 -21.2342 -13.3822  -4.8989  -4.7658  -4.7658
     0.4190   0.4190   0.6122   6.5126   7.0507   7.0507   8.3231   8.6070
     8.6070  10.7625  10.7625  10.8765  15.5125  15.5126  15.5156  18.3866

     highest occupied, lowest unoccupied level (ev):    10.8765   13.1563

!    total energy              =    -264.75282117 Ry
     Harris-Foulkes estimate   =    -264.75311385 Ry
     estimated scf accuracy    <       0.00117278 Ry

     The total energy is the sum of the following terms:

     one-electron contribution =     -68.08418679 Ry
     hartree contribution      =      58.11676252 Ry
     xc contribution           =     -42.79634742 Ry
     ewald contribution        =    -211.91466263 Ry
     scf correction            =      -0.07438685 Ry

     iteration # 21     ecut=    40.00 Ry     beta=0.60
     Davidson diagonalization with overlap
     ethr =  2.93E-06,  avg # of iterations =  2.6

     total cpu time spent up to now is        3.3 secs

     total energy              =    -264.75287679 Ry
     Harris-Foulkes estimate   =    -264.75291397 Ry
     estimated scf accuracy    <       0.00013202 Ry

     iteration # 22     ecut=    40.00 Ry     beta=0.60
     Davidson diagonalization with overlap
     ethr =  3.30E-07,  avg # of iterations =  2.4

     total cpu time spent up to now is        3.4 secs

     total energy              =    -264.75289834 Ry
     Harris-Foulkes estimate   =    -264.75291176 Ry
     estimated scf accuracy    <       0.00002349 Ry

     iteration # 23     ecut=    40.00 Ry     beta=0.60
     Davidson diagonalization with overlap
     ethr =  5.87E-08,  avg # of iterations =  3.4

     total cpu time spent up to now is        3.5 secs

     total energy              =    -264.75290607 Ry
     Harris-Foulkes estimate   =    -264.75290757 Ry
     estimated scf accuracy    <       0.00000373 Ry

     iteration # 24     ecut=    40.00 Ry     beta=0.60
     Davidson diagonalization with overlap
     ethr =  9.32E-09,  avg # of iterations =  2.7

     total cpu time spent up to now is        3.6 secs

     total energy              =    -264.75290668 Ry
     Harris-Foulkes estimate   =    -264.75290672 Ry
     estimated scf accuracy    <       0.00000006 Ry

     iteration # 25     ecut=    40.00 Ry     beta=0.60
     Davidson diagonalization with overlap
     ethr =  1.54E-10,  avg # of iterations =  3.7

     total cpu time spent up to now is        3.8 secs

     total energy              =    -264.75290674 Ry
     Harris-Foulkes estimate   =    -264.75290675 Ry
     estimated scf accuracy    <       0.00000001 Ry

     iteration # 26     ecut=    40.00 Ry     beta=0.60
     Davidson diagonalization with overlap
     ethr =  2.60E-11,  avg # of iterations =  2.4

     total cpu time spent up to now is        3.9 secs

     total energy              =    -264.75290674 Ry
     Harris-Foulkes estimate   =    -264.75290674 Ry
     estimated scf accuracy    <          7.6E-10 Ry

     iteration # 27     ecut=    40.00 Ry     beta=0.60
     Davidson diagonalization with overlap
     ethr =  1.90E-12,  avg # of iterations =  3.9

     total cpu time spent up to now is        4.1 secs

     total energy              =    -264.75290674 Ry
     Harris-Foulkes estimate   =    -264.75290674 Ry
     estimated scf accuracy    <          4.1E-10 Ry

     iteration # 28     ecut=    40.00 Ry     beta=0.60
     Davidson diagonalization with overlap
     ethr =  1.04E-12,  avg # of iterations =  2.2

     total cpu time spent up to now is        4.2 secs

     total energy              =    -264.75290674 Ry
     Harris-Foulkes estimate   =    -264.75290674 Ry
     estimated scf accuracy    <          2.7E-11 Ry

     iteration # 29     ecut=    40.00 Ry     beta=0.60
     Davidson diagonalization with overlap
     ethr =  1.00E-13,  avg # of iterations =  3.1

     total cpu time spent up to now is        4.3 secs

     End of self-consistent calculation

          k = 0.0833 0.0833 0.0833 (  1755 PWs)   bands (ev):

   -44.6612 -21.2612 -21.2606 -21.2606 -13.7243  -5.7402  -5.0349  -5.0349
     1.2159   1.2159   1.3728   8.4169   8.6414   8.6414   9.3897   9.3897
     9.8423  10.4242  10.7537  10.7537  13.1045  13.1632  13.1632  15.7904

          k = 0.0833 0.0833 0.2500 (  1751 PWs)   bands (ev):

   -44.6605 -21.2933 -21.2595 -21.2593 -13.6553  -5.8310  -5.0096  -4.9204
     1.2698   1.2903   1.6013   7.6648   8.3355   8.4176   8.9101   8.9289
     9.6994   9.7365  10.4402  10.4423  13.2084  13.9613  13.9728  15.8018

          k = 0.0833 0.0833 0.4167 (  1733 PWs)   bands (ev):

   -44.6598 -21.3254 -21.2579 -21.2577 -13.5830  -6.0106  -4.9840  -4.6860
     1.3246   1.4654   1.7201   6.8965   8.0630   8.1367   8.3450   8.6815
     9.4661   9.6304  10.0731  10.1810  13.2811  14.7253  14.7327  15.8011

          k = 0.0833 0.2500 0.2500 (  1734 PWs)   bands (ev):

   -44.6598 -21.2920 -21.2905 -21.2578 -13.5968  -5.7314  -4.9872  -4.9172
     1.1900   1.2906   1.7182   7.3137   7.8836   8.0566   8.4737   8.6651
     9.2791   9.9968  10.0537  10.5286  13.9515  14.0891  14.3184  16.3263

          k = 0.0833 0.2500 0.4167 (  1730 PWs)   bands (ev):

   -44.6591 -21.3231 -21.2894 -21.2564 -13.5379  -5.7511  -4.9376  -4.8002
     1.1898   1.3884   1.6423   6.8051   7.4059   7.7124   8.1473   8.5197
     9.3986   9.7441   9.9468  10.4998  14.0698  14.7589  14.8724  16.4266

          k = 0.0833 0.4167 0.4167 (  1715 PWs)   bands (ev):

   -44.6584 -21.3207 -21.3205 -21.2549 -13.4906  -5.4723  -4.9348  -4.8777
     1.1618   1.2103   1.6042   6.6334   6.9150   7.0472   8.1512   8.1682
     9.1869  10.0053  10.1828  10.8532  14.7703  14.8035  15.1882  16.6228

          k = 0.2500 0.2500 0.2500 (  1722 PWs)   bands (ev):

   -44.6591 -21.2905 -21.2889 -21.2889 -13.5459  -5.5544  -4.9269  -4.9269
     1.0104   1.0104   1.7895   7.0719   7.8255   7.8255   8.3677   8.5247
     8.5247  10.2812  10.2812  10.3497  14.4455  14.4455  14.4554  17.5969

          k = 0.2500 0.2500 0.4167 (  1727 PWs)   bands (ev):

   -44.6584 -21.3210 -21.2881 -21.2875 -13.4953  -5.4801  -4.8640  -4.8210
     0.8298   1.0419   1.5182   6.7811   7.4216   7.7907   7.8499   8.5159
     8.7041  10.0524  10.3924  10.4474  14.5659  14.9628  15.0059  17.5597

          k = 0.2500 0.4167 0.4167 (  1735 PWs)   bands (ev):

   -44.6578 -21.3191 -21.3188 -21.2865 -13.4528  -5.1851  -4.8389  -4.8041
     0.7136   0.7702   1.1256   6.6524   7.0491   7.6279   7.8994   8.4518
     8.5544  10.3248  10.4504  10.8561  15.0902  15.1023  15.3221  17.8975

          k = 0.4167 0.4167 0.4167 (  1727 PWs)   bands (ev):

   -44.6571 -21.3175 -21.3171 -21.3171 -13.4115  -4.8690  -4.7350  -4.7350
     0.4039   0.4039   0.5971   6.5308   7.0551   7.0551   8.3306   8.6139
     8.6139  10.7986  10.7986  10.9138  15.4600  15.4600  15.4633  18.3805

     highest occupied, lowest unoccupied level (ev):    10.9138   13.1045

!    total energy              =    -264.75290674 Ry
     Harris-Foulkes estimate   =    -264.75290674 Ry
     estimated scf accuracy    <          5.1E-13 Ry

     The total energy is the sum of the following terms:

     one-electron contribution =     -68.16037416 Ry
     hartree contribution      =      58.11849826 Ry
     xc contribution           =     -42.79636821 Ry
     ewald contribution        =    -211.91466263 Ry

     convergence has been achieved in  29 iterations

     Forces acting on atoms (cartesian axes, Ry/au):

     atom    1 type  3   force =     0.00000000    0.00000000    0.00000000
     atom    2 type  2   force =     0.00000000    0.00000000   -0.00000000
     atom    3 type  1   force =     0.00000000   -0.00000000    0.00000000
     atom    4 type  1   force =     0.00000000    0.00000000   -0.00000000
     atom    5 type  1   force =     0.00000000   -0.00000000    0.00000000

     Total force =     0.000000     Total SCF correction =     0.000000


     Computing stress (Cartesian axis) and pressure

          total   stress  (Ry/bohr**3)                   (kbar)     P=    6.13
   0.00004166   0.00000000   0.00000000          6.13      0.00      0.00
   0.00000000   0.00004166   0.00000000          0.00      6.13      0.00
   0.00000000   0.00000000   0.00004166          0.00      0.00      6.13


     Writing output data file bto.save
 
     init_run     :      0.08s CPU      0.10s WALL (       1 calls)
     electrons    :      3.88s CPU      4.01s WALL (       1 calls)
     forces       :      0.02s CPU      0.02s WALL (       1 calls)
     stress       :      0.04s CPU      0.04s WALL (       1 calls)

     Called by init_run:
     wfcinit      :      0.02s CPU      0.03s WALL (       1 calls)
     potinit      :      0.01s CPU      0.01s WALL (       1 calls)

     Called by electrons:
     c_bands      :      3.22s CPU      3.33s WALL (      29 calls)
     sum_band     :      0.48s CPU      0.50s WALL (      29 calls)
     v_of_rho     :      0.01s CPU      0.01s WALL (      30 calls)
     newd         :      0.14s CPU      0.14s WALL (      30 calls)
     mix_rho      :      0.02s CPU      0.02s WALL (      29 calls)

     Called by c_bands:
     init_us_2    :      0.01s CPU      0.02s WALL (     610 calls)
     cegterg      :      3.10s CPU      3.19s WALL (     290 calls)

     Called by sum_band:
     sum_band:bec :      0.00s CPU      0.00s WALL (     290 calls)
     addusdens    :      0.14s CPU      0.15s WALL (      29 calls)

     Called by *egterg:
     h_psi        :      1.47s CPU      1.57s WALL (    1186 calls)
     s_psi        :      0.02s CPU      0.03s WALL (    1186 calls)
     g_psi        :      0.00s CPU      0.00s WALL (     886 calls)
     cdiaghg      :      1.18s CPU      1.15s WALL (    1176 calls)

     Called by h_psi:
     h_psi:pot    :      1.47s CPU      1.57s WALL (    1186 calls)
     h_psi:calbec :      0.10s CPU      0.10s WALL (    1186 calls)
     vloc_psi     :      1.33s CPU      1.43s WALL (    1186 calls)
     add_vuspsi   :      0.03s CPU      0.04s WALL (    1186 calls)

     General routines
     calbec       :      0.14s CPU      0.14s WALL (    1526 calls)
     fft          :      0.02s CPU      0.03s WALL (     271 calls)
     ffts         :      0.00s CPU      0.01s WALL (      59 calls)
     fftw         :      1.48s CPU      1.57s WALL (   46046 calls)
     interpolate  :      0.01s CPU      0.01s WALL (      59 calls)
     davcio       :      0.00s CPU      0.00s WALL (      10 calls)
 
     Parallel routines
     fft_scatter  :      0.95s CPU      1.00s WALL (   46376 calls)
 
     PWSCF        :     4.20s CPU         4.46s WALL

 
   This run was terminated on:  18:56:44  30Dec2017            

=------------------------------------------------------------------------------=
   JOB DONE.
=------------------------------------------------------------------------------=
