
     Program PWSCF v.6.1 (svn rev. 13369) starts on 30Dec2017 at 18:56:33 

     This program is part of the open-source Quantum ESPRESSO suite
     for quantum simulation of materials; please cite
         "P. Giannozzi et al., J. Phys.:Condens. Matter 21 395502 (2009);
          URL http://www.quantum-espresso.org", 
     in publications or presentations arising from this work. More details at
     http://www.quantum-espresso.org/quote

     Parallel version (MPI), running on    28 processors
     R & G space division:  proc/nbgrp/npool/nimage =      28
     Waiting for input...
     Reading input from standard input

     Current dimensions of program PWSCF are:
     Max number of different atomic species (ntypx) = 10
     Max number of k-points (npk) =  40000
     Max angular momentum in pseudopotentials (lmaxx) =  3

     Subspace diagonalization in iterative solution of the eigenvalue problem:
     a serial algorithm will be used

 
     Parallelization info
     --------------------
     sticks:   dense  smooth     PW     G-vecs:    dense   smooth      PW
     Min          37      18      5                  907      322      53
     Max          38      19      6                  912      325      58
     Sum        1041     517    161                25413     9045    1551
 

     Title: 
     cubic BaTiO3 at 7.40 lattice parameter. xc=PZ                              


     bravais-lattice index     =            1
     lattice parameter (alat)  =       7.4000  a.u.
     unit-cell volume          =     405.2240 (a.u.)^3
     number of atoms/cell      =            5
     number of atomic types    =            3
     number of electrons       =        40.00
     number of Kohn-Sham states=           24
     kinetic-energy cutoff     =      30.0000  Ry
     charge density cutoff     =     240.0000  Ry
     convergence threshold     =      1.0E-12
     mixing beta               =       0.6000
     number of iterations used =            8  plain     mixing
     Exchange-correlation      = SLA-PZ-NOGX-NOGC ( 1  1  0  0 0 0)

     celldm(1)=   7.400000  celldm(2)=   0.000000  celldm(3)=   0.000000
     celldm(4)=   0.000000  celldm(5)=   0.000000  celldm(6)=   0.000000

     crystal axes: (cart. coord. in units of alat)
               a(1) = (   1.000000   0.000000   0.000000 )  
               a(2) = (   0.000000   1.000000   0.000000 )  
               a(3) = (   0.000000   0.000000   1.000000 )  

     reciprocal axes: (cart. coord. in units 2 pi/alat)
               b(1) = (  1.000000  0.000000  0.000000 )  
               b(2) = (  0.000000  1.000000  0.000000 )  
               b(3) = (  0.000000  0.000000  1.000000 )  


     PseudoPot. # 1 for O  read from file:
     ../../PSP_DIR/O.pz-van_ak.UPF
     MD5 check sum: d814fcb982dd9af4fc6452aae6bb9318
     Pseudo is Ultrasoft, Zval =  6.0
     Generated by new atomic code, or converted to UPF format
     Using radial grid of  737 points,  4 beta functions with: 
                l(1) =   0
                l(2) =   0
                l(3) =   1
                l(4) =   1
     Q(r) pseudized with  8 coefficients,  rinner =    0.800   0.800   0.800


     PseudoPot. # 2 for Ti read from file:
     ../../PSP_DIR/Ti.pz-sp-van_ak.UPF
     MD5 check sum: 545d0e6e05332b8871a8093f427cb0ca
     Pseudo is Ultrasoft, Zval = 12.0
     Generated by new atomic code, or converted to UPF format
     Using radial grid of  851 points,  6 beta functions with: 
                l(1) =   0
                l(2) =   0
                l(3) =   1
                l(4) =   1
                l(5) =   2
                l(6) =   2
     Q(r) pseudized with  8 coefficients,  rinner =    1.000   1.000   1.000
                                                       1.000   1.000

     PseudoPot. # 3 for Ba read from file:
     ../../PSP_DIR/Ba.pz-sp-hgh.UPF
     MD5 check sum: 155c4e4bbe33bd45901c985a874b3acf
     Pseudo is Norm-conserving, Zval = 10.0
     Generated in analytical, separable form
     Using radial grid of 1251 points,  6 beta functions with: 
                l(1) =   0
                l(2) =   0
                l(3) =   1
                l(4) =   1
                l(5) =   2
                l(6) =   3

     atomic species   valence    mass     pseudopotential
        O              6.00    15.99000     O ( 1.00)
        Ti            12.00    47.88000     Ti( 1.00)
        Ba            10.00   137.33000     Ba( 1.00)

     48 Sym. Ops., with inversion, found



   Cartesian axes

     site n.     atom                  positions (alat units)
         1           Ba  tau(   1) = (   0.0000000   0.0000000   0.0000000  )
         2           Ti  tau(   2) = (   0.5000000   0.5000000   0.5000000  )
         3           O   tau(   3) = (   0.0000000   0.5000000   0.5000000  )
         4           O   tau(   4) = (   0.5000000   0.0000000   0.5000000  )
         5           O   tau(   5) = (   0.5000000   0.5000000   0.0000000  )

     number of k points=    10
                       cart. coord. in units 2pi/alat
        k(    1) = (   0.0833333   0.0833333   0.0833333), wk =   0.0740741
        k(    2) = (   0.0833333   0.0833333   0.2500000), wk =   0.2222222
        k(    3) = (   0.0833333   0.0833333   0.4166667), wk =   0.2222222
        k(    4) = (   0.0833333   0.2500000   0.2500000), wk =   0.2222222
        k(    5) = (   0.0833333   0.2500000   0.4166667), wk =   0.4444444
        k(    6) = (   0.0833333   0.4166667   0.4166667), wk =   0.2222222
        k(    7) = (   0.2500000   0.2500000   0.2500000), wk =   0.0740741
        k(    8) = (   0.2500000   0.2500000   0.4166667), wk =   0.2222222
        k(    9) = (   0.2500000   0.4166667   0.4166667), wk =   0.2222222
        k(   10) = (   0.4166667   0.4166667   0.4166667), wk =   0.0740741

     Dense  grid:    25413 G-vectors     FFT dimensions: (  40,  40,  40)

     Smooth grid:     9045 G-vectors     FFT dimensions: (  25,  25,  25)

     Estimated max dynamical RAM per process >       1.23MB

     Estimated total allocated dynamical RAM >      34.40MB

     Initial potential from superposition of free atoms

     starting charge   28.99996, renormalised to   40.00000
     Starting wfc are   22 randomized atomic wfcs +    2 random wfc

     total cpu time spent up to now is        0.3 secs

     per-process dynamical memory:    28.7 Mb

     Self-consistent Calculation

     iteration #  1     ecut=    30.00 Ry     beta=0.60
     Davidson diagonalization with overlap
     ethr =  1.00E-02,  avg # of iterations =  9.2

     total cpu time spent up to now is        0.6 secs

     total energy              =     -18.26054241 Ry
     Harris-Foulkes estimate   =    -354.06463557 Ry
     estimated scf accuracy    <     446.51461961 Ry

     iteration #  2     ecut=    30.00 Ry     beta=0.60
     Davidson diagonalization with overlap
     ethr =  1.00E-02,  avg # of iterations =  7.2

     total cpu time spent up to now is        0.8 secs

     total energy              =    -267.77447684 Ry
     Harris-Foulkes estimate   =    -406.84341731 Ry
     estimated scf accuracy    <     263.27257810 Ry

     iteration #  3     ecut=    30.00 Ry     beta=0.60
     Davidson diagonalization with overlap
     ethr =  1.00E-02,  avg # of iterations =  5.3

     total cpu time spent up to now is        1.0 secs

     total energy              =    -268.41290073 Ry
     Harris-Foulkes estimate   =    -283.79167898 Ry
     estimated scf accuracy    <      52.24247127 Ry

     iteration #  4     ecut=    30.00 Ry     beta=0.60
     Davidson diagonalization with overlap
     ethr =  1.00E-02,  avg # of iterations =  3.5

     total cpu time spent up to now is        1.1 secs

     total energy              =    -264.29615563 Ry
     Harris-Foulkes estimate   =    -269.70198716 Ry
     estimated scf accuracy    <      23.16954168 Ry

     iteration #  5     ecut=    30.00 Ry     beta=0.60
     Davidson diagonalization with overlap
     ethr =  1.00E-02,  avg # of iterations =  3.3

     total cpu time spent up to now is        1.2 secs

     total energy              =    -266.11534874 Ry
     Harris-Foulkes estimate   =    -266.51234647 Ry
     estimated scf accuracy    <       4.71900759 Ry

     iteration #  6     ecut=    30.00 Ry     beta=0.60
     Davidson diagonalization with overlap
     ethr =  1.00E-02,  avg # of iterations =  1.0

     total cpu time spent up to now is        1.3 secs

     total energy              =    -265.80760236 Ry
     Harris-Foulkes estimate   =    -266.13715350 Ry
     estimated scf accuracy    <       3.71928279 Ry

     iteration #  7     ecut=    30.00 Ry     beta=0.60
     Davidson diagonalization with overlap
     ethr =  9.30E-03,  avg # of iterations =  1.0

     total cpu time spent up to now is        1.4 secs

     total energy              =    -265.66446285 Ry
     Harris-Foulkes estimate   =    -265.83532400 Ry
     estimated scf accuracy    <       2.74195750 Ry

     iteration #  8     ecut=    30.00 Ry     beta=0.60
     Davidson diagonalization with overlap
     ethr =  6.85E-03,  avg # of iterations =  1.0

     total cpu time spent up to now is        1.4 secs

     total energy              =    -264.51109993 Ry
     Harris-Foulkes estimate   =    -265.67767045 Ry
     estimated scf accuracy    <       2.26067799 Ry

     iteration #  9     ecut=    30.00 Ry     beta=0.60
     Davidson diagonalization with overlap
     ethr =  5.65E-03,  avg # of iterations =  2.9

     total cpu time spent up to now is        1.5 secs

     total energy              =    -265.20704954 Ry
     Harris-Foulkes estimate   =    -265.09024081 Ry
     estimated scf accuracy    <       3.03063116 Ry

     iteration # 10     ecut=    30.00 Ry     beta=0.60
     Davidson diagonalization with overlap
     ethr =  5.65E-03,  avg # of iterations =  1.0

     total cpu time spent up to now is        1.6 secs

          k = 0.0833 0.0833 0.0833     band energies (ev):

   -49.9815 -26.3170 -26.3170 -26.3163 -11.0031  -6.2663  -5.8810  -5.8764
     3.2673   3.2683   3.4593   7.6225   7.6818   7.7016   8.2754   8.2755
     8.6993   9.3978   9.7281   9.7382  10.2769  10.3061  10.4275  11.6688

          k = 0.0833 0.0833 0.2500     band energies (ev):

   -49.9811 -26.3327 -26.3165 -26.3164 -10.8707  -6.4260  -5.8624  -5.7044
     3.3420   3.3471   3.7313   6.1686   7.3625   7.4449   7.7061   7.9141
     8.5054   9.1912   9.5122   9.5823  10.1762  10.8564  10.9038  11.6606

          k = 0.0833 0.0833 0.4167     band energies (ev):

   -49.9807 -26.3484 -26.3158 -26.3153 -10.7246  -6.6699  -5.8437  -5.4249
     3.4277   3.6015   3.8112   5.0873   7.0989   7.1632   7.2642   7.7919
     8.4816   8.9234   9.1896   9.3113   9.9891  11.4907  11.4994  11.6605

          k = 0.0833 0.2500 0.2500     band energies (ev):

   -49.9806 -26.3327 -26.3314 -26.3154 -10.7599  -6.3662  -5.7797  -5.7386
     3.1835   3.3496   3.9787   5.9822   6.0473   6.9188   7.4213   7.5789
     8.1154   9.1014   9.6169  10.1507  10.7949  10.8843  11.0164  12.3320

          k = 0.0833 0.2500 0.4167     band energies (ev):

   -49.9802 -26.3481 -26.3314 -26.3144 -10.6422  -6.4482  -5.7683  -5.5411
     3.1937   3.4041   3.9679   4.9158   5.9522   6.3909   7.0751   7.4788
     8.0000   9.2688   9.5871  10.0458  10.8200  11.4023  11.5336  12.4344

          k = 0.0833 0.4167 0.4167     band energies (ev):

   -49.9798 -26.3473 -26.3471 -26.3137 -10.5557  -6.2516  -5.6688  -5.6382
     3.1375   3.1970   3.9595   4.7743   4.9340   5.9859   6.9245   7.0339
     7.7669   9.8143   9.9975  10.4303  11.4236  11.4504  11.6005  12.6581

          k = 0.2500 0.2500 0.2500     band energies (ev):

   -49.9802 -26.3323 -26.3309 -26.3304 -10.6685  -6.2052  -5.7425  -5.7422
     2.9268   2.9269   4.1655   5.8588   5.8650   5.9943   7.0245   7.5955
     7.5959   9.7498   9.7585   9.8908  10.9952  11.3220  11.3273  13.9119

          k = 0.2500 0.2500 0.4167     band energies (ev):

   -49.9798 -26.3467 -26.3309 -26.3294 -10.5714  -6.1950  -5.7042  -5.5773
     2.6829   2.9138   3.7167   4.8505   5.7956   6.1654   6.5927   7.6172
     7.7459   9.5405   9.9592  10.0228  11.3559  11.5584  11.7677  13.8771

          k = 0.2500 0.4167 0.4167     band energies (ev):

   -49.9794 -26.3464 -26.3459 -26.3299 -10.4988  -5.9633  -5.6109  -5.6002
     2.5011   2.5641   3.0663   4.7489   4.9395   6.1297   6.8940   7.4993
     7.6669   9.9389  10.0808  10.3888  11.7778  11.8571  11.9064  14.3530

          k = 0.4167 0.4167 0.4167     band energies (ev):

   -49.9789 -26.3455 -26.3449 -26.3438 -10.4388  -5.6573  -5.5507  -5.5505
     2.1055   2.1055   2.3333   4.7403   4.7480   5.1928   7.5405   7.8108
     7.8109  10.3416  10.3425  10.4398  12.1398  12.2067  12.2085  15.6532

     highest occupied, lowest unoccupied level (ev):    10.4398    9.9891

!    total energy              =    -265.16614737 Ry
     Harris-Foulkes estimate   =    -265.23078644 Ry
     estimated scf accuracy    <       4.81251549 Ry

     The total energy is the sum of the following terms:

     one-electron contribution =     -79.97414266 Ry
     hartree contribution      =      55.27167797 Ry
     xc contribution           =     -42.68136448 Ry
     ewald contribution        =    -211.91466265 Ry
     scf correction            =      14.13234445 Ry

     iteration # 11     ecut=    30.00 Ry     beta=0.60
     Davidson diagonalization with overlap
     ethr =  5.65E-03,  avg # of iterations =  1.0

     total cpu time spent up to now is        1.7 secs

     total energy              =    -265.50159093 Ry
     Harris-Foulkes estimate   =    -265.17056022 Ry
     estimated scf accuracy    <       4.40938943 Ry

     iteration # 12     ecut=    30.00 Ry     beta=0.60
     Davidson diagonalization with overlap
     ethr =  5.65E-03,  avg # of iterations =  1.0

     total cpu time spent up to now is        1.7 secs

     total energy              =    -264.47475325 Ry
     Harris-Foulkes estimate   =    -265.56396980 Ry
     estimated scf accuracy    <       9.16012890 Ry

     iteration # 13     ecut=    30.00 Ry     beta=0.60
     Davidson diagonalization with overlap
     ethr =  5.65E-03,  avg # of iterations =  1.0

     total cpu time spent up to now is        1.8 secs

     total energy              =    -264.37614127 Ry
     Harris-Foulkes estimate   =    -264.87434052 Ry
     estimated scf accuracy    <       0.74911468 Ry

     iteration # 14     ecut=    30.00 Ry     beta=0.60
     Davidson diagonalization with overlap
     ethr =  1.87E-03,  avg # of iterations =  4.3

     total cpu time spent up to now is        1.9 secs

     total energy              =    -264.61945213 Ry
     Harris-Foulkes estimate   =    -264.88637189 Ry
     estimated scf accuracy    <       0.57742455 Ry

     iteration # 15     ecut=    30.00 Ry     beta=0.60
     Davidson diagonalization with overlap
     ethr =  1.44E-03,  avg # of iterations =  4.2

     total cpu time spent up to now is        2.0 secs

     total energy              =    -264.71746805 Ry
     Harris-Foulkes estimate   =    -264.71847722 Ry
     estimated scf accuracy    <       0.00359706 Ry

     iteration # 16     ecut=    30.00 Ry     beta=0.60
     Davidson diagonalization with overlap
     ethr =  8.99E-06,  avg # of iterations =  5.0

     total cpu time spent up to now is        2.2 secs

     total energy              =    -264.72090826 Ry
     Harris-Foulkes estimate   =    -264.72089004 Ry
     estimated scf accuracy    <       0.00177494 Ry

     iteration # 17     ecut=    30.00 Ry     beta=0.60
     Davidson diagonalization with overlap
     ethr =  4.44E-06,  avg # of iterations =  4.1

     total cpu time spent up to now is        2.4 secs

     total energy              =    -264.72315179 Ry
     Harris-Foulkes estimate   =    -264.72224957 Ry
     estimated scf accuracy    <       0.00811450 Ry

     iteration # 18     ecut=    30.00 Ry     beta=0.60
     Davidson diagonalization with overlap
     ethr =  4.44E-06,  avg # of iterations =  2.9

     total cpu time spent up to now is        2.5 secs

     total energy              =    -264.72233167 Ry
     Harris-Foulkes estimate   =    -264.72358250 Ry
     estimated scf accuracy    <       0.01724427 Ry

     iteration # 19     ecut=    30.00 Ry     beta=0.60
     Davidson diagonalization with overlap
     ethr =  4.44E-06,  avg # of iterations =  1.0

     total cpu time spent up to now is        2.5 secs

     total energy              =    -264.72181093 Ry
     Harris-Foulkes estimate   =    -264.72242476 Ry
     estimated scf accuracy    <       0.01217864 Ry

     iteration # 20     ecut=    30.00 Ry     beta=0.60
     Davidson diagonalization with overlap
     ethr =  4.44E-06,  avg # of iterations =  2.1

     total cpu time spent up to now is        2.6 secs

          k = 0.0833 0.0833 0.0833     band energies (ev):

   -45.0440 -21.6027 -21.6024 -21.6024 -13.6108  -5.7343  -5.0353  -5.0353
     1.2656   1.2656   1.4222   8.4099   8.6238   8.6238   9.4053   9.4053
     9.8717  10.4227  10.7616  10.7616  12.8846  12.9468  12.9468  15.5270

          k = 0.0833 0.0833 0.2500     band energies (ev):

   -45.0435 -21.6332 -21.6015 -21.6013 -13.5415  -5.8267  -5.0102  -4.9211
     1.3191   1.3391   1.6501   7.6261   8.3162   8.4056   8.9130   8.9252
     9.7216   9.7444  10.4396  10.4436  12.9848  13.7541  13.7610  15.5340

          k = 0.0833 0.0833 0.4167     band energies (ev):

   -45.0428 -21.6632 -21.6003 -21.6000 -13.4695  -6.0080  -4.9847  -4.6873
     1.3735   1.5158   1.7679   6.8281   8.0541   8.1281   8.3397   8.6837
     9.4745   9.6414  10.0670  10.1797  13.0506  14.5102  14.5137  15.5318

          k = 0.0833 0.2500 0.2500     band energies (ev):

   -45.0427 -21.6322 -21.6300 -21.5998 -13.4823  -5.7285  -4.9882  -4.9182
     1.2393   1.3400   1.7684   7.2905   7.8176   8.0394   8.4624   8.6583
     9.2812  10.0248  10.0415  10.5501  13.7352  13.8756  14.1019  16.0714

          k = 0.0833 0.2500 0.4167     band energies (ev):

   -45.0421 -21.6609 -21.6294 -21.5986 -13.4224  -5.7498  -4.9389  -4.8017
     1.2386   1.4367   1.6934   6.7443   7.3910   7.6603   8.1360   8.5068
     9.3895   9.7504   9.9661  10.5234  13.8499  14.5391  14.6462  16.1736

          k = 0.0833 0.4167 0.4167     band energies (ev):

   -45.0415 -21.6586 -21.6585 -21.5976 -13.3750  -5.4723  -4.9365  -4.8794
     1.2099   1.2585   1.6564   6.5815   6.9051   6.9573   8.1360   8.1530
     9.1556  10.0312  10.2103  10.8824  14.5468  14.5801  14.9522  16.3755

          k = 0.2500 0.2500 0.2500     band energies (ev):

   -45.0421 -21.6312 -21.6289 -21.6289 -13.4316  -5.5532  -4.9284  -4.9284
     1.0585   1.0585   1.8396   7.0568   7.7601   7.7601   8.3449   8.5170
     8.5170  10.2979  10.2979  10.3791  14.2268  14.2331  14.2331  17.3649

          k = 0.2500 0.2500 0.4167     band energies (ev):

   -45.0415 -21.6587 -21.6284 -21.6274 -13.3786  -5.4802  -4.8660  -4.8228
     0.8773   1.0895   1.5684   6.7242   7.3930   7.7249   7.8136   8.5066
     8.6877  10.0716  10.4188  10.4735  14.3471  14.7430  14.7772  17.3307

          k = 0.2500 0.4167 0.4167     band energies (ev):

   -45.0408 -21.6571 -21.6566 -21.6268 -13.3344  -5.1865  -4.8410  -4.8065
     0.7601   0.8169   1.1739   6.6047   6.9590   7.6087   7.8468   8.4370
     8.5383  10.3524  10.4790  10.8855  14.8669  14.8798  15.0885  17.6998

          k = 0.4167 0.4167 0.4167     band energies (ev):

   -45.0401 -21.6557 -21.6546 -21.6546 -13.2921  -4.8718  -4.7380  -4.7380
     0.4500   0.4500   0.6428   6.4962   6.9645   6.9645   8.3143   8.5976
     8.5976  10.8283  10.8283  10.9441  15.2315  15.2315  15.2350  18.3968

     highest occupied, lowest unoccupied level (ev):    10.9441   12.8846

!    total energy              =    -264.72206852 Ry
     Harris-Foulkes estimate   =    -264.72186698 Ry
     estimated scf accuracy    <       0.00881015 Ry

     The total energy is the sum of the following terms:

     one-electron contribution =     -68.55175484 Ry
     hartree contribution      =      57.88348386 Ry
     xc contribution           =     -42.76344064 Ry
     ewald contribution        =    -211.91466265 Ry
     scf correction            =       0.62430574 Ry

     iteration # 21     ecut=    30.00 Ry     beta=0.60
     Davidson diagonalization with overlap
     ethr =  4.44E-06,  avg # of iterations =  1.0

     total cpu time spent up to now is        2.7 secs

     total energy              =    -264.71902320 Ry
     Harris-Foulkes estimate   =    -264.72207526 Ry
     estimated scf accuracy    <       0.00980301 Ry

     iteration # 22     ecut=    30.00 Ry     beta=0.60
     Davidson diagonalization with overlap
     ethr =  4.44E-06,  avg # of iterations =  3.7

     total cpu time spent up to now is        2.8 secs

     total energy              =    -264.72017302 Ry
     Harris-Foulkes estimate   =    -264.72025646 Ry
     estimated scf accuracy    <       0.00040355 Ry

     iteration # 23     ecut=    30.00 Ry     beta=0.60
     Davidson diagonalization with overlap
     ethr =  1.01E-06,  avg # of iterations =  2.2

     total cpu time spent up to now is        2.9 secs

     total energy              =    -264.72022183 Ry
     Harris-Foulkes estimate   =    -264.72021001 Ry
     estimated scf accuracy    <       0.00014164 Ry

     iteration # 24     ecut=    30.00 Ry     beta=0.60
     Davidson diagonalization with overlap
     ethr =  3.54E-07,  avg # of iterations =  1.8

     total cpu time spent up to now is        2.9 secs

     total energy              =    -264.72024416 Ry
     Harris-Foulkes estimate   =    -264.72023130 Ry
     estimated scf accuracy    <       0.00019527 Ry

     iteration # 25     ecut=    30.00 Ry     beta=0.60
     Davidson diagonalization with overlap
     ethr =  3.54E-07,  avg # of iterations =  1.0

     total cpu time spent up to now is        3.0 secs

     total energy              =    -264.72027201 Ry
     Harris-Foulkes estimate   =    -264.72024472 Ry
     estimated scf accuracy    <       0.00022500 Ry

     iteration # 26     ecut=    30.00 Ry     beta=0.60
     Davidson diagonalization with overlap
     ethr =  3.54E-07,  avg # of iterations =  1.0

     total cpu time spent up to now is        3.1 secs

     total energy              =    -264.72016045 Ry
     Harris-Foulkes estimate   =    -264.72027337 Ry
     estimated scf accuracy    <       0.00030257 Ry

     iteration # 27     ecut=    30.00 Ry     beta=0.60
     Davidson diagonalization with overlap
     ethr =  3.54E-07,  avg # of iterations =  2.0

     total cpu time spent up to now is        3.2 secs

     total energy              =    -264.72013845 Ry
     Harris-Foulkes estimate   =    -264.72017873 Ry
     estimated scf accuracy    <       0.00005537 Ry

     iteration # 28     ecut=    30.00 Ry     beta=0.60
     Davidson diagonalization with overlap
     ethr =  1.38E-07,  avg # of iterations =  3.9

     total cpu time spent up to now is        3.3 secs

     total energy              =    -264.72013888 Ry
     Harris-Foulkes estimate   =    -264.72020148 Ry
     estimated scf accuracy    <       0.00011255 Ry

     iteration # 29     ecut=    30.00 Ry     beta=0.60
     Davidson diagonalization with overlap
     ethr =  1.38E-07,  avg # of iterations =  3.0

     total cpu time spent up to now is        3.4 secs

     total energy              =    -264.72016153 Ry
     Harris-Foulkes estimate   =    -264.72016166 Ry
     estimated scf accuracy    <       0.00000029 Ry

     iteration # 30     ecut=    30.00 Ry     beta=0.60
     Davidson diagonalization with overlap
     ethr =  7.24E-10,  avg # of iterations =  3.9

     total cpu time spent up to now is        3.5 secs

          k = 0.0833 0.0833 0.0833     band energies (ev):

   -44.6633 -21.2525 -21.2521 -21.2521 -13.6748  -5.7355  -5.0339  -5.0339
     1.2116   1.2116   1.3679   8.4279   8.6521   8.6521   9.4005   9.4005
     9.8544  10.4358  10.7646  10.7646  13.1202  13.1788  13.1788  15.8142

          k = 0.0833 0.0833 0.2500     band energies (ev):

   -44.6627 -21.2849 -21.2512 -21.2509 -13.6060  -5.8280  -5.0086  -4.9183
     1.2646   1.2851   1.5957   7.6734   8.3456   8.4277   8.9183   8.9382
     9.7102   9.7484  10.4516  10.4531  13.2253  13.9788  13.9904  15.8254

          k = 0.0833 0.0833 0.4167     band energies (ev):

   -44.6621 -21.3168 -21.2499 -21.2497 -13.5345  -6.0098  -4.9829  -4.6828
     1.3183   1.4600   1.7146   6.9022   8.0722   8.1462   8.3540   8.6878
     9.4751   9.6401  10.0844  10.1932  13.2984  14.7442  14.7520  15.8243

          k = 0.0833 0.2500 0.2500     band energies (ev):

   -44.6620 -21.2838 -21.2815 -21.2494 -13.5472  -5.7290  -4.9857  -4.9155
     1.1864   1.2855   1.7124   7.3224   7.8921   8.0652   8.4822   8.6736
     9.2893  10.0073  10.0644  10.5391  13.9698  14.1064  14.3356  16.3508

          k = 0.0833 0.2500 0.4167     band energies (ev):

   -44.6614 -21.3142 -21.2808 -21.2482 -13.4879  -5.7500  -4.9362  -4.7977
     1.1850   1.3834   1.6366   6.8112   7.4140   7.7206   8.1561   8.5267
     9.4086   9.7542   9.9568  10.5100  14.0881  14.7780  14.8910  16.4512

          k = 0.0833 0.4167 0.4167     band energies (ev):

   -44.6607 -21.3118 -21.3116 -21.2471 -13.4413  -5.4711  -4.9330  -4.8757
     1.1576   1.2059   1.5982   6.6393   6.9221   7.0527   8.1583   8.1752
     9.1985  10.0139  10.1913  10.8639  14.7892  14.8220  15.2071  16.6467

          k = 0.2500 0.2500 0.2500     band energies (ev):

   -44.6614 -21.2828 -21.2803 -21.2803 -13.4971  -5.5522  -4.9253  -4.9253
     1.0062   1.0062   1.7827   7.0807   7.8336   7.8336   8.3769   8.5312
     8.5312  10.2910  10.2910  10.3613  14.4628  14.4628  14.4733  17.6245

          k = 0.2500 0.2500 0.4167     band energies (ev):

   -44.6607 -21.3119 -21.2798 -21.2787 -13.4446  -5.4787  -4.8623  -4.8186
     0.8255   1.0383   1.5128   6.7875   7.4290   7.7990   7.8584   8.5218
     8.7110  10.0628  10.4027  10.4585  14.5842  14.9823  15.0246  17.5876

          k = 0.2500 0.4167 0.4167     band energies (ev):

   -44.6600 -21.3101 -21.3097 -21.2780 -13.4009  -5.1834  -4.8367  -4.8020
     0.7094   0.7665   1.1209   6.6594   7.0547   7.6346   7.9083   8.4585
     8.5609  10.3356  10.4611  10.8675  15.1097  15.1215  15.3415  17.9233

          k = 0.4167 0.4167 0.4167     band energies (ev):

   -44.6593 -21.3087 -21.3076 -21.3076 -13.3589  -4.8669  -4.7325  -4.7325
     0.4006   0.4006   0.5930   6.5383   7.0605   7.0605   8.3360   8.6197
     8.6197  10.8103  10.8103  10.9257  15.4801  15.4801  15.4834  18.3946

     highest occupied, lowest unoccupied level (ev):    10.9257   13.1202

!    total energy              =    -264.72016168 Ry
     Harris-Foulkes estimate   =    -264.72016171 Ry
     estimated scf accuracy    <       0.00000007 Ry

     The total energy is the sum of the following terms:

     one-electron contribution =     -68.12039531 Ry
     hartree contribution      =      58.10330662 Ry
     xc contribution           =     -42.78681400 Ry
     ewald contribution        =    -211.91466265 Ry
     scf correction            =      -0.00159634 Ry

     iteration # 31     ecut=    30.00 Ry     beta=0.60
     Davidson diagonalization with overlap
     ethr =  1.86E-10,  avg # of iterations =  1.9

     total cpu time spent up to now is        3.6 secs

     total energy              =    -264.72016169 Ry
     Harris-Foulkes estimate   =    -264.72016169 Ry
     estimated scf accuracy    <       0.00000001 Ry

     iteration # 32     ecut=    30.00 Ry     beta=0.60
     Davidson diagonalization with overlap
     ethr =  2.66E-11,  avg # of iterations =  3.0

     total cpu time spent up to now is        3.7 secs

     total energy              =    -264.72016169 Ry
     Harris-Foulkes estimate   =    -264.72016169 Ry
     estimated scf accuracy    <          3.8E-10 Ry

     iteration # 33     ecut=    30.00 Ry     beta=0.60
     Davidson diagonalization with overlap
     ethr =  9.60E-13,  avg # of iterations =  3.1

     total cpu time spent up to now is        3.8 secs

     total energy              =    -264.72016169 Ry
     Harris-Foulkes estimate   =    -264.72016169 Ry
     estimated scf accuracy    <          5.9E-12 Ry

     iteration # 34     ecut=    30.00 Ry     beta=0.60
     Davidson diagonalization with overlap
     ethr =  1.00E-13,  avg # of iterations =  3.0

     total cpu time spent up to now is        3.9 secs

     total energy              =    -264.72016169 Ry
     Harris-Foulkes estimate   =    -264.72016169 Ry
     estimated scf accuracy    <          2.1E-11 Ry

     iteration # 35     ecut=    30.00 Ry     beta=0.60
     Davidson diagonalization with overlap
     ethr =  1.00E-13,  avg # of iterations =  2.0

     total cpu time spent up to now is        4.0 secs

     End of self-consistent calculation

          k = 0.0833 0.0833 0.0833 (  1126 PWs)   bands (ev):

   -44.6645 -21.2536 -21.2532 -21.2532 -13.6742  -5.7356  -5.0340  -5.0340
     1.2121   1.2121   1.3684   8.4278   8.6519   8.6519   9.4003   9.4003
     9.8543  10.4357  10.7645  10.7645  13.1195  13.1780  13.1780  15.8133

          k = 0.0833 0.0833 0.2500 (  1133 PWs)   bands (ev):

   -44.6639 -21.2860 -21.2523 -21.2520 -13.6053  -5.8282  -5.0088  -4.9185
     1.2651   1.2855   1.5962   7.6731   8.3455   8.4275   8.9182   8.9380
     9.7101   9.7482  10.4514  10.4529  13.2245  13.9781  13.9897  15.8245

          k = 0.0833 0.0833 0.4167 (  1135 PWs)   bands (ev):

   -44.6633 -21.3179 -21.2510 -21.2508 -13.5338  -6.0099  -4.9831  -4.6830
     1.3188   1.4605   1.7150   6.9019   8.0721   8.1461   8.3538   8.6877
     9.4750   9.6399  10.0842  10.1930  13.2976  14.7434  14.7511  15.8233

          k = 0.0833 0.2500 0.2500 (  1122 PWs)   bands (ev):

   -44.6632 -21.2849 -21.2826 -21.2506 -13.5466  -5.7291  -4.9858  -4.9156
     1.1869   1.2860   1.7129   7.3222   7.8918   8.0650   8.4821   8.6734
     9.2892  10.0072  10.0642  10.5390  13.9690  14.1056  14.3348  16.3499

          k = 0.0833 0.2500 0.4167 (  1124 PWs)   bands (ev):

   -44.6625 -21.3153 -21.2819 -21.2493 -13.4873  -5.7501  -4.9363  -4.7979
     1.1855   1.3839   1.6372   6.8110   7.4138   7.7204   8.1559   8.5265
     9.4084   9.7541   9.9566  10.5098  14.0873  14.7772  14.8901  16.4502

          k = 0.0833 0.4167 0.4167 (  1121 PWs)   bands (ev):

   -44.6619 -21.3130 -21.3127 -21.2482 -13.4406  -5.4712  -4.9331  -4.8759
     1.1581   1.2064   1.5987   6.6391   6.9219   7.0523   8.1581   8.1750
     9.1983  10.0138  10.1912  10.8638  14.7884  14.8212  15.2063  16.6458

          k = 0.2500 0.2500 0.2500 (  1126 PWs)   bands (ev):

   -44.6625 -21.2839 -21.2814 -21.2814 -13.4965  -5.5524  -4.9255  -4.9255
     1.0066   1.0066   1.7832   7.0805   7.8333   7.8333   8.3767   8.5311
     8.5311  10.2908  10.2908  10.3611  14.4621  14.4621  14.4724  17.6237

          k = 0.2500 0.2500 0.4167 (  1118 PWs)   bands (ev):

   -44.6618 -21.3130 -21.2809 -21.2798 -13.4440  -5.4788  -4.8625  -4.8188
     0.8260   1.0387   1.5133   6.7872   7.4288   7.7987   7.8582   8.5217
     8.7109  10.0626  10.4025  10.4584  14.5834  14.9815  15.0238  17.5868

          k = 0.2500 0.4167 0.4167 (  1118 PWs)   bands (ev):

   -44.6612 -21.3113 -21.3108 -21.2791 -13.4003  -5.1836  -4.8368  -4.8021
     0.7098   0.7670   1.1214   6.6592   7.0543   7.6344   7.9080   8.4583
     8.5607  10.3355  10.4610  10.8673  15.1088  15.1206  15.3407  17.9225

          k = 0.4167 0.4167 0.4167 (  1106 PWs)   bands (ev):

   -44.6604 -21.3098 -21.3087 -21.3087 -13.3582  -4.8670  -4.7327  -4.7327
     0.4010   0.4010   0.5934   6.5381   7.0601   7.0601   8.3359   8.6195
     8.6195  10.8101  10.8101  10.9255  15.4792  15.4792  15.4825  18.3947

     highest occupied, lowest unoccupied level (ev):    10.9255   13.1195

!    total energy              =    -264.72016169 Ry
     Harris-Foulkes estimate   =    -264.72016169 Ry
     estimated scf accuracy    <          3.3E-14 Ry

     The total energy is the sum of the following terms:

     one-electron contribution =     -68.12184992 Ry
     hartree contribution      =      58.10315945 Ry
     xc contribution           =     -42.78680857 Ry
     ewald contribution        =    -211.91466265 Ry

     convergence has been achieved in  35 iterations

     Forces acting on atoms (cartesian axes, Ry/au):

     atom    1 type  3   force =     0.00000000    0.00000000    0.00000000
     atom    2 type  2   force =     0.00000000    0.00000000    0.00000000
     atom    3 type  1   force =     0.00000000    0.00000000    0.00000000
     atom    4 type  1   force =     0.00000000    0.00000000    0.00000000
     atom    5 type  1   force =     0.00000000    0.00000000    0.00000000

     Total force =     0.000000     Total SCF correction =     0.000000


     Computing stress (Cartesian axis) and pressure

          total   stress  (Ry/bohr**3)                   (kbar)     P=   10.86
   0.00007384   0.00000000   0.00000000         10.86      0.00      0.00
   0.00000000   0.00007384   0.00000000          0.00     10.86      0.00
   0.00000000   0.00000000   0.00007384          0.00      0.00     10.86


     Writing output data file bto.save
 
     init_run     :      0.07s CPU      0.09s WALL (       1 calls)
     electrons    :      3.59s CPU      3.74s WALL (       1 calls)
     forces       :      0.02s CPU      0.02s WALL (       1 calls)
     stress       :      0.03s CPU      0.03s WALL (       1 calls)

     Called by init_run:
     wfcinit      :      0.02s CPU      0.02s WALL (       1 calls)
     potinit      :      0.01s CPU      0.01s WALL (       1 calls)

     Called by electrons:
     c_bands      :      3.08s CPU      3.19s WALL (      35 calls)
     sum_band     :      0.37s CPU      0.40s WALL (      35 calls)
     v_of_rho     :      0.01s CPU      0.01s WALL (      36 calls)
     newd         :      0.10s CPU      0.10s WALL (      36 calls)
     mix_rho      :      0.02s CPU      0.02s WALL (      35 calls)

     Called by c_bands:
     init_us_2    :      0.01s CPU      0.02s WALL (     730 calls)
     cegterg      :      2.96s CPU      3.05s WALL (     350 calls)

     Called by sum_band:
     sum_band:bec :      0.00s CPU      0.00s WALL (     350 calls)
     addusdens    :      0.11s CPU      0.11s WALL (      35 calls)

     Called by *egterg:
     h_psi        :      1.16s CPU      1.25s WALL (    1345 calls)
     s_psi        :      0.03s CPU      0.03s WALL (    1345 calls)
     g_psi        :      0.00s CPU      0.00s WALL (     985 calls)
     cdiaghg      :      1.35s CPU      1.30s WALL (    1335 calls)

     Called by h_psi:
     h_psi:pot    :      1.15s CPU      1.24s WALL (    1345 calls)
     h_psi:calbec :      0.12s CPU      0.11s WALL (    1345 calls)
     vloc_psi     :      1.00s CPU      1.10s WALL (    1345 calls)
     add_vuspsi   :      0.03s CPU      0.04s WALL (    1345 calls)

     General routines
     calbec       :      0.16s CPU      0.14s WALL (    1745 calls)
     fft          :      0.02s CPU      0.03s WALL (     325 calls)
     ffts         :      0.00s CPU      0.01s WALL (      71 calls)
     fftw         :      1.10s CPU      1.19s WALL (   53966 calls)
     interpolate  :      0.01s CPU      0.01s WALL (      71 calls)
     davcio       :      0.00s CPU      0.00s WALL (      10 calls)
 
     Parallel routines
     fft_scatter  :      0.79s CPU      0.84s WALL (   54362 calls)
 
     PWSCF        :     3.89s CPU         4.15s WALL

 
   This run was terminated on:  18:56:38  30Dec2017            

=------------------------------------------------------------------------------=
   JOB DONE.
=------------------------------------------------------------------------------=
