
     Program PWSCF v.6.1 (svn rev. 13369) starts on 31Dec2017 at 12:16:26 

     This program is part of the open-source Quantum ESPRESSO suite
     for quantum simulation of materials; please cite
         "P. Giannozzi et al., J. Phys.:Condens. Matter 21 395502 (2009);
          URL http://www.quantum-espresso.org", 
     in publications or presentations arising from this work. More details at
     http://www.quantum-espresso.org/quote

     Parallel version (MPI), running on    28 processors
     R & G space division:  proc/nbgrp/npool/nimage =      28
     Waiting for input...
     Reading input from standard input
Warning: card &IONS ignored
Warning: card / ignored
Warning: card &CELL ignored
Warning: card / ignored

     Current dimensions of program PWSCF are:
     Max number of different atomic species (ntypx) = 10
     Max number of k-points (npk) =  40000
     Max angular momentum in pseudopotentials (lmaxx) =  3
               file O.pbe-rrkjus.UPF: wavefunction(s)  2S renormalized

     Subspace diagonalization in iterative solution of the eigenvalue problem:
     a serial algorithm will be used

 
     Parallelization info
     --------------------
     sticks:   dense  smooth     PW     G-vecs:    dense   smooth      PW
     Min         125      62     17                 5539     1956     291
     Max         126      63     18                 5541     1961     296
     Sum        3505    1749    489               155139    54795    8217
 

     Title: 
     cubic BaTiO3 at 7.40 lattice parameter. xc=PBE                             


     bravais-lattice index     =            1
     lattice parameter (alat)  =       7.4000  a.u.
     unit-cell volume          =     405.2240 (a.u.)^3
     number of atoms/cell      =            5
     number of atomic types    =            3
     number of electrons       =        40.00
     number of Kohn-Sham states=           24
     kinetic-energy cutoff     =     100.0000  Ry
     charge density cutoff     =     800.0000  Ry
     convergence threshold     =      1.0E-12
     mixing beta               =       0.6000
     number of iterations used =            8  plain     mixing
     Exchange-correlation      =  SLA  PW   PBE  PBE ( 1  4  3  4 0 0)

     celldm(1)=   7.400000  celldm(2)=   0.000000  celldm(3)=   0.000000
     celldm(4)=   0.000000  celldm(5)=   0.000000  celldm(6)=   0.000000

     crystal axes: (cart. coord. in units of alat)
               a(1) = (   1.000000   0.000000   0.000000 )  
               a(2) = (   0.000000   1.000000   0.000000 )  
               a(3) = (   0.000000   0.000000   1.000000 )  

     reciprocal axes: (cart. coord. in units 2 pi/alat)
               b(1) = (  1.000000  0.000000  0.000000 )  
               b(2) = (  0.000000  1.000000  0.000000 )  
               b(3) = (  0.000000  0.000000  1.000000 )  


     PseudoPot. # 1 for O  read from file:
     ../../PSP_DIR/O.pbe-rrkjus.UPF
     MD5 check sum: 390ba29e75625707450f3bd3f0eb6be9
     Pseudo is Ultrasoft, Zval =  6.0
     Generated by new atomic code, or converted to UPF format
     Using radial grid of 1269 points,  4 beta functions with: 
                l(1) =   0
                l(2) =   0
                l(3) =   1
                l(4) =   1
     Q(r) pseudized with 0 coefficients 


     PseudoPot. # 2 for Ti read from file:
     ../../PSP_DIR/Ti.pbe-sp-van_ak.UPF
     MD5 check sum: 8e4df49b7f0d34bbd5052bf3f5ea0213
     Pseudo is Ultrasoft, Zval = 12.0
     Generated by new atomic code, or converted to UPF format
     Using radial grid of  851 points,  6 beta functions with: 
                l(1) =   0
                l(2) =   0
                l(3) =   1
                l(4) =   1
                l(5) =   2
                l(6) =   2
     Q(r) pseudized with  8 coefficients,  rinner =    1.000   1.000   1.000
                                                       1.000   1.000

     PseudoPot. # 3 for Ba read from file:
     ../../PSP_DIR/Ba.pbe-nsp-van.UPF
     MD5 check sum: a011de417d3466d8e94df216395bc359
     Pseudo is Ultrasoft + core correction, Zval = 10.0
     Generated by new atomic code, or converted to UPF format
     Using radial grid of  907 points,  6 beta functions with: 
                l(1) =   0
                l(2) =   0
                l(3) =   1
                l(4) =   1
                l(5) =   2
                l(6) =   2
     Q(r) pseudized with  6 coefficients,  rinner =    1.200   1.200   1.200
                                                       1.200   1.200

     atomic species   valence    mass     pseudopotential
        O              6.00    15.99000     O ( 1.00)
        Ti            12.00    47.88000     Ti( 1.00)
        Ba            10.00   137.33000     Ba( 1.00)

     48 Sym. Ops., with inversion, found



   Cartesian axes

     site n.     atom                  positions (alat units)
         1           Ba  tau(   1) = (   0.0000000   0.0000000   0.0000000  )
         2           Ti  tau(   2) = (   0.5000000   0.5000000   0.5000000  )
         3           O   tau(   3) = (   0.0000000   0.5000000   0.5000000  )
         4           O   tau(   4) = (   0.5000000   0.0000000   0.5000000  )
         5           O   tau(   5) = (   0.5000000   0.5000000   0.0000000  )

     number of k points=    10
                       cart. coord. in units 2pi/alat
        k(    1) = (   0.0833333   0.0833333   0.0833333), wk =   0.0740741
        k(    2) = (   0.0833333   0.0833333   0.2500000), wk =   0.2222222
        k(    3) = (   0.0833333   0.0833333   0.4166667), wk =   0.2222222
        k(    4) = (   0.0833333   0.2500000   0.2500000), wk =   0.2222222
        k(    5) = (   0.0833333   0.2500000   0.4166667), wk =   0.4444444
        k(    6) = (   0.0833333   0.4166667   0.4166667), wk =   0.2222222
        k(    7) = (   0.2500000   0.2500000   0.2500000), wk =   0.0740741
        k(    8) = (   0.2500000   0.2500000   0.4166667), wk =   0.2222222
        k(    9) = (   0.2500000   0.4166667   0.4166667), wk =   0.2222222
        k(   10) = (   0.4166667   0.4166667   0.4166667), wk =   0.0740741

     Dense  grid:   155139 G-vectors     FFT dimensions: (  72,  72,  72)

     Smooth grid:    54795 G-vectors     FFT dimensions: (  48,  48,  48)

     Estimated max dynamical RAM per process >       5.65MB

     Estimated total allocated dynamical RAM >     158.30MB

     Initial potential from superposition of free atoms

     starting charge   38.98495, renormalised to   40.00000
     Starting wfc are   35 randomized atomic wfcs

     total cpu time spent up to now is        0.8 secs

     per-process dynamical memory:    49.7 Mb

     Self-consistent Calculation

     iteration #  1     ecut=   100.00 Ry     beta=0.60
     Davidson diagonalization with overlap
     ethr =  1.00E-02,  avg # of iterations =  2.6

     total cpu time spent up to now is        1.1 secs

     total energy              =    -302.90891404 Ry
     Harris-Foulkes estimate   =    -303.47770274 Ry
     estimated scf accuracy    <       0.79462567 Ry

     iteration #  2     ecut=   100.00 Ry     beta=0.60
     Davidson diagonalization with overlap
     ethr =  1.99E-03,  avg # of iterations =  4.0

     total cpu time spent up to now is        1.5 secs

     total energy              =    -302.37074084 Ry
     Harris-Foulkes estimate   =    -303.83289298 Ry
     estimated scf accuracy    <       5.50302386 Ry

     iteration #  3     ecut=   100.00 Ry     beta=0.60
     Davidson diagonalization with overlap
     ethr =  1.99E-03,  avg # of iterations =  3.4

     total cpu time spent up to now is        1.8 secs

     total energy              =    -303.31189126 Ry
     Harris-Foulkes estimate   =    -303.35617747 Ry
     estimated scf accuracy    <       0.16637471 Ry

     iteration #  4     ecut=   100.00 Ry     beta=0.60
     Davidson diagonalization with overlap
     ethr =  4.16E-04,  avg # of iterations =  1.4

     total cpu time spent up to now is        2.0 secs

     total energy              =    -303.29892944 Ry
     Harris-Foulkes estimate   =    -303.32031814 Ry
     estimated scf accuracy    <       0.06167845 Ry

     iteration #  5     ecut=   100.00 Ry     beta=0.60
     Davidson diagonalization with overlap
     ethr =  1.54E-04,  avg # of iterations =  3.1

     total cpu time spent up to now is        2.3 secs

     total energy              =    -303.31170585 Ry
     Harris-Foulkes estimate   =    -303.31167050 Ry
     estimated scf accuracy    <       0.00038631 Ry

     iteration #  6     ecut=   100.00 Ry     beta=0.60
     Davidson diagonalization with overlap
     ethr =  9.66E-07,  avg # of iterations =  4.0

     total cpu time spent up to now is        2.6 secs

     total energy              =    -303.31174153 Ry
     Harris-Foulkes estimate   =    -303.31194564 Ry
     estimated scf accuracy    <       0.00041916 Ry

     iteration #  7     ecut=   100.00 Ry     beta=0.60
     Davidson diagonalization with overlap
     ethr =  9.66E-07,  avg # of iterations =  3.3

     total cpu time spent up to now is        2.9 secs

     total energy              =    -303.31184104 Ry
     Harris-Foulkes estimate   =    -303.31184967 Ry
     estimated scf accuracy    <       0.00002773 Ry

     iteration #  8     ecut=   100.00 Ry     beta=0.60
     Davidson diagonalization with overlap
     ethr =  6.93E-08,  avg # of iterations =  2.0

     total cpu time spent up to now is        3.2 secs

     total energy              =    -303.31184334 Ry
     Harris-Foulkes estimate   =    -303.31184476 Ry
     estimated scf accuracy    <       0.00000318 Ry

     iteration #  9     ecut=   100.00 Ry     beta=0.60
     Davidson diagonalization with overlap
     ethr =  7.95E-09,  avg # of iterations =  3.2

     total cpu time spent up to now is        3.5 secs

     total energy              =    -303.31184420 Ry
     Harris-Foulkes estimate   =    -303.31184422 Ry
     estimated scf accuracy    <       0.00000008 Ry

     iteration # 10     ecut=   100.00 Ry     beta=0.60
     Davidson diagonalization with overlap
     ethr =  1.98E-10,  avg # of iterations =  3.0

     total cpu time spent up to now is        3.8 secs

          k = 0.0833 0.0833 0.0833     band energies (ev):

   -45.1056 -21.3823 -21.3818 -21.3818 -13.1528  -5.7380  -5.0912  -5.0912
     1.6106   1.6106   1.7614   8.6193   8.8288   8.8288   9.5196   9.5196
     9.9031  10.6108  10.9284  10.9284  13.3834  13.4374  13.4374  15.9434

          k = 0.0833 0.0833 0.2500     band energies (ev):

   -45.1050 -21.4131 -21.3808 -21.3805 -13.0817  -5.8217  -5.0753  -4.9745
     1.6669   1.6791   1.9747   7.8765   8.5500   8.6368   9.1185   9.1238
     9.8200   9.9367  10.6228  10.6298  13.4574  14.1948  14.2028  15.9458

          k = 0.0833 0.0833 0.4167     band energies (ev):

   -45.1043 -21.4439 -21.3794 -21.3792 -13.0080  -5.9901  -5.0592  -4.7476
     1.7245   1.8540   2.0727   7.1111   8.3170   8.3902   8.5796   8.9474
     9.6483   9.8410  10.2652  10.3646  13.5005  14.9188  14.9301  15.9419

          k = 0.0833 0.2500 0.2500     band energies (ev):

   -45.1044 -21.4120 -21.4107 -21.3794 -13.0225  -5.7277  -5.0362  -4.9842
     1.5734   1.6868   2.0895   7.5582   8.0774   8.3109   8.7070   8.8983
     9.5031  10.1084  10.2443  10.7144  14.1705  14.3081  14.5637  16.4685

          k = 0.0833 0.2500 0.4167     band energies (ev):

   -45.1037 -21.4418 -21.4097 -21.3781 -12.9616  -5.7463  -5.0043  -4.8553
     1.5814   1.7614   2.0199   7.0335   7.6886   7.9359   8.4129   8.7771
     9.6074   9.9436  10.1229  10.6818  14.2763  14.9573  15.0951  16.5694

          k = 0.0833 0.4167 0.4167     band energies (ev):

   -45.1031 -21.4399 -21.4396 -21.3770 -12.9140  -5.4935  -4.9766  -4.9321
     1.5298   1.5841   1.9968   6.8747   7.2414   7.2533   8.4371   8.4611
     9.3555  10.2031  10.3528  11.0272  14.9702  15.0064  15.4134  16.7696

          k = 0.2500 0.2500 0.2500     band energies (ev):

   -45.1037 -21.4108 -21.4093 -21.4093 -12.9712  -5.5579  -4.9859  -4.9859
     1.4079   1.4079   2.1552   7.3395   8.0298   8.0298   8.5902   8.7954
     8.7954  10.4208  10.4740  10.4740  14.6606  14.6739  14.6739  17.7267

          k = 0.2500 0.2500 0.4167     band energies (ev):

   -45.1031 -21.4399 -21.4087 -21.4079 -12.9185  -5.4889  -4.9339  -4.8745
     1.2431   1.4253   1.8932   7.0084   7.6929   8.0014   8.0757   8.7990
     8.9654  10.2337  10.5563  10.5917  14.7680  15.1676  15.2151  17.6952

          k = 0.2500 0.4167 0.4167     band energies (ev):

   -45.1025 -21.4382 -21.4380 -21.4069 -12.8743  -5.2180  -4.8914  -4.8659
     1.1233   1.1647   1.5173   6.8748   7.2561   7.9184   8.1079   8.7388
     8.8337  10.4883  10.5933  10.9885  15.2850  15.2992  15.5249  18.0564

          k = 0.4167 0.4167 0.4167     band energies (ev):

   -45.1019 -21.4367 -21.4364 -21.4364 -12.8339  -4.9201  -4.8005  -4.8005
     0.8244   0.8244   1.0063   6.7360   7.2622   7.2622   8.6186   8.8948
     8.8948  10.9184  10.9184  10.9964  15.6444  15.6444  15.6516  18.7422

     highest occupied, lowest unoccupied level (ev):    11.0272   13.3834

!    total energy              =    -303.31184423 Ry
     Harris-Foulkes estimate   =    -303.31184423 Ry
     estimated scf accuracy    <          4.0E-09 Ry

     The total energy is the sum of the following terms:

     one-electron contribution =     -64.96227664 Ry
     hartree contribution      =      57.91859271 Ry
     xc contribution           =     -84.35353672 Ry
     ewald contribution        =    -211.91466263 Ry
     scf correction            =       0.00003905 Ry

     iteration # 11     ecut=   100.00 Ry     beta=0.60
     Davidson diagonalization with overlap
     ethr =  9.92E-12,  avg # of iterations =  3.8

     total cpu time spent up to now is        4.1 secs

     total energy              =    -303.31184423 Ry
     Harris-Foulkes estimate   =    -303.31184423 Ry
     estimated scf accuracy    <          1.9E-09 Ry

     iteration # 12     ecut=   100.00 Ry     beta=0.60
     Davidson diagonalization with overlap
     ethr =  4.65E-12,  avg # of iterations =  2.8

     total cpu time spent up to now is        4.4 secs

     total energy              =    -303.31184423 Ry
     Harris-Foulkes estimate   =    -303.31184423 Ry
     estimated scf accuracy    <          2.2E-12 Ry

     iteration # 13     ecut=   100.00 Ry     beta=0.60
     Davidson diagonalization with overlap
     ethr =  1.00E-13,  avg # of iterations =  3.2

     total cpu time spent up to now is        4.7 secs

     total energy              =    -303.31184423 Ry
     Harris-Foulkes estimate   =    -303.31184423 Ry
     estimated scf accuracy    <          5.3E-12 Ry

     iteration # 14     ecut=   100.00 Ry     beta=0.60
     Davidson diagonalization with overlap
     ethr =  1.00E-13,  avg # of iterations =  1.1

     total cpu time spent up to now is        4.9 secs

     End of self-consistent calculation

          k = 0.0833 0.0833 0.0833 (  6850 PWs)   bands (ev):

   -45.1054 -21.3821 -21.3817 -21.3817 -13.1529  -5.7380  -5.0912  -5.0912
     1.6106   1.6106   1.7614   8.6193   8.8288   8.8288   9.5196   9.5196
     9.9031  10.6108  10.9284  10.9284  13.3835  13.4376  13.4376  15.9435

          k = 0.0833 0.0833 0.2500 (  6839 PWs)   bands (ev):

   -45.1048 -21.4129 -21.3806 -21.3804 -13.0817  -5.8217  -5.0753  -4.9746
     1.6669   1.6791   1.9747   7.8765   8.5500   8.6368   9.1185   9.1238
     9.8200   9.9367  10.6227  10.6298  13.4575  14.1949  14.2029  15.9459

          k = 0.0833 0.0833 0.4167 (  6839 PWs)   bands (ev):

   -45.1042 -21.4437 -21.3793 -21.3791 -13.0081  -5.9901  -5.0593  -4.7476
     1.7245   1.8540   2.0727   7.1111   8.3170   8.3902   8.5796   8.9474
     9.6483   9.8410  10.2652  10.3646  13.5006  14.9189  14.9302  15.9420

          k = 0.0833 0.2500 0.2500 (  6847 PWs)   bands (ev):

   -45.1042 -21.4119 -21.4106 -21.3792 -13.0226  -5.7277  -5.0362  -4.9842
     1.5734   1.6868   2.0894   7.5582   8.0774   8.3109   8.7070   8.8983
     9.5031  10.1084  10.2443  10.7144  14.1706  14.3082  14.5638  16.4686

          k = 0.0833 0.2500 0.4167 (  6833 PWs)   bands (ev):

   -45.1036 -21.4416 -21.4095 -21.3780 -12.9617  -5.7463  -5.0043  -4.8553
     1.5814   1.7614   2.0199   7.0336   7.6886   7.9360   8.4129   8.7771
     9.6074   9.9436  10.1229  10.6818  14.2764  14.9574  15.0953  16.5695

          k = 0.0833 0.4167 0.4167 (  6854 PWs)   bands (ev):

   -45.1029 -21.4397 -21.4394 -21.3768 -12.9140  -5.4936  -4.9766  -4.9321
     1.5298   1.5841   1.9967   6.8747   7.2414   7.2533   8.4371   8.4611
     9.3555  10.2031  10.3528  11.0272  14.9703  15.0065  15.4135  16.7697

          k = 0.2500 0.2500 0.2500 (  6881 PWs)   bands (ev):

   -45.1036 -21.4107 -21.4092 -21.4092 -12.9712  -5.5579  -4.9859  -4.9859
     1.4078   1.4078   2.1552   7.3396   8.0298   8.0298   8.5902   8.7955
     8.7955  10.4208  10.4740  10.4740  14.6607  14.6740  14.6740  17.7268

          k = 0.2500 0.2500 0.4167 (  6839 PWs)   bands (ev):

   -45.1029 -21.4398 -21.4085 -21.4077 -12.9185  -5.4889  -4.9339  -4.8745
     1.2431   1.4253   1.8931   7.0084   7.6929   8.0014   8.0757   8.7990
     8.9654  10.2337  10.5562  10.5917  14.7682  15.1677  15.2152  17.6953

          k = 0.2500 0.4167 0.4167 (  6851 PWs)   bands (ev):

   -45.1023 -21.4381 -21.4378 -21.4067 -12.8744  -5.2181  -4.8914  -4.8659
     1.1232   1.1647   1.5173   6.8748   7.2562   7.9184   8.1079   8.7388
     8.8337  10.4883  10.5933  10.9885  15.2851  15.2993  15.5250  18.0565

          k = 0.4167 0.4167 0.4167 (  6854 PWs)   bands (ev):

   -45.1017 -21.4365 -21.4362 -21.4362 -12.8339  -4.9201  -4.8005  -4.8005
     0.8244   0.8244   1.0063   6.7360   7.2623   7.2623   8.6186   8.8948
     8.8948  10.9184  10.9184  10.9964  15.6445  15.6445  15.6517  18.7422

     highest occupied, lowest unoccupied level (ev):    11.0272   13.3835

!    total energy              =    -303.31184423 Ry
     Harris-Foulkes estimate   =    -303.31184423 Ry
     estimated scf accuracy    <          3.7E-13 Ry

     The total energy is the sum of the following terms:

     one-electron contribution =     -64.96212028 Ry
     hartree contribution      =      57.91846625 Ry
     xc contribution           =     -84.35352756 Ry
     ewald contribution        =    -211.91466263 Ry

     convergence has been achieved in  14 iterations

     Forces acting on atoms (cartesian axes, Ry/au):

     atom    1 type  3   force =     0.00000000   -0.00000000    0.00000000
     atom    2 type  2   force =     0.00000000    0.00000000    0.00000000
     atom    3 type  1   force =     0.00000000    0.00000000   -0.00000000
     atom    4 type  1   force =     0.00000000    0.00000000    0.00000000
     atom    5 type  1   force =     0.00000000    0.00000000    0.00000000

     Total force =     0.000000     Total SCF correction =     0.000000


     Computing stress (Cartesian axis) and pressure

          total   stress  (Ry/bohr**3)                   (kbar)     P=   90.19
   0.00061308   0.00000000   0.00000000         90.19      0.00      0.00
   0.00000000   0.00061308   0.00000000          0.00     90.19      0.00
   0.00000000   0.00000000   0.00061308          0.00      0.00     90.19


     Writing output data file bto.save
 
     init_run     :      0.29s CPU      0.40s WALL (       1 calls)
     electrons    :      4.01s CPU      4.16s WALL (       1 calls)
     forces       :      0.10s CPU      0.11s WALL (       1 calls)
     stress       :      0.23s CPU      0.24s WALL (       1 calls)

     Called by init_run:
     wfcinit      :      0.08s CPU      0.09s WALL (       1 calls)
     potinit      :      0.03s CPU      0.05s WALL (       1 calls)

     Called by electrons:
     c_bands      :      2.46s CPU      2.52s WALL (      14 calls)
     sum_band     :      0.95s CPU      0.98s WALL (      14 calls)
     v_of_rho     :      0.12s CPU      0.13s WALL (      15 calls)
     newd         :      0.47s CPU      0.48s WALL (      15 calls)
     mix_rho      :      0.02s CPU      0.03s WALL (      14 calls)

     Called by c_bands:
     init_us_2    :      0.03s CPU      0.04s WALL (     310 calls)
     cegterg      :      2.30s CPU      2.35s WALL (     140 calls)

     Called by sum_band:
     sum_band:bec :      0.00s CPU      0.00s WALL (     140 calls)
     addusdens    :      0.55s CPU      0.56s WALL (      14 calls)

     Called by *egterg:
     h_psi        :      1.44s CPU      1.49s WALL (     559 calls)
     s_psi        :      0.05s CPU      0.05s WALL (     559 calls)
     g_psi        :      0.00s CPU      0.01s WALL (     409 calls)
     cdiaghg      :      0.54s CPU      0.54s WALL (     549 calls)

     Called by h_psi:
     h_psi:pot    :      1.44s CPU      1.48s WALL (     559 calls)
     h_psi:calbec :      0.10s CPU      0.09s WALL (     559 calls)
     vloc_psi     :      1.30s CPU      1.34s WALL (     559 calls)
     add_vuspsi   :      0.04s CPU      0.05s WALL (     559 calls)

     General routines
     calbec       :      0.14s CPU      0.13s WALL (     749 calls)
     fft          :      0.11s CPU      0.14s WALL (     261 calls)
     ffts         :      0.00s CPU      0.00s WALL (      29 calls)
     fftw         :      1.43s CPU      1.46s WALL (   21266 calls)
     interpolate  :      0.02s CPU      0.02s WALL (      29 calls)
     davcio       :      0.00s CPU      0.00s WALL (      10 calls)
 
     Parallel routines
     fft_scatter  :      0.87s CPU      0.88s WALL (   21556 calls)
 
     PWSCF        :     4.81s CPU         5.48s WALL

 
   This run was terminated on:  12:16:31  31Dec2017            

=------------------------------------------------------------------------------=
   JOB DONE.
=------------------------------------------------------------------------------=
