
     Program PWSCF v.6.1 (svn rev. 13369) starts on  5Jan2018 at 11:13:36 

     This program is part of the open-source Quantum ESPRESSO suite
     for quantum simulation of materials; please cite
         "P. Giannozzi et al., J. Phys.:Condens. Matter 21 395502 (2009);
          URL http://www.quantum-espresso.org", 
     in publications or presentations arising from this work. More details at
     http://www.quantum-espresso.org/quote

     Parallel version (MPI), running on    28 processors
     R & G space division:  proc/nbgrp/npool/nimage =      28
     Waiting for input...
     Reading input from standard input

     Current dimensions of program PWSCF are:
     Max number of different atomic species (ntypx) = 10
     Max number of k-points (npk) =  40000
     Max angular momentum in pseudopotentials (lmaxx) =  3
               file O.pbe-rrkjus.UPF: wavefunction(s)  2S renormalized

     Subspace diagonalization in iterative solution of the eigenvalue problem:
     a serial algorithm will be used

 
     Parallelization info
     --------------------
     sticks:   dense  smooth     PW     G-vecs:    dense   smooth      PW
     Min         125      62     17                 5539     1956     291
     Max         126      63     18                 5541     1961     296
     Sum        3505    1749    489               155139    54795    8217
 

     Title: 
     cubic BaTiO3 at 7.40 lattice parameter. xc=PBE                             


     bravais-lattice index     =            1
     lattice parameter (alat)  =       7.4000  a.u.
     unit-cell volume          =     405.2240 (a.u.)^3
     number of atoms/cell      =            5
     number of atomic types    =            3
     number of electrons       =        40.00
     number of Kohn-Sham states=           24
     kinetic-energy cutoff     =     100.0000  Ry
     charge density cutoff     =     800.0000  Ry
     convergence threshold     =      1.0E-12
     mixing beta               =       0.6000
     number of iterations used =            8  plain     mixing
     Exchange-correlation      =  SLA  PW   PBE  PBE ( 1  4  3  4 0 0)
     nstep                     =           50


     celldm(1)=   7.400000  celldm(2)=   0.000000  celldm(3)=   0.000000
     celldm(4)=   0.000000  celldm(5)=   0.000000  celldm(6)=   0.000000

     crystal axes: (cart. coord. in units of alat)
               a(1) = (   1.000000   0.000000   0.000000 )  
               a(2) = (   0.000000   1.000000   0.000000 )  
               a(3) = (   0.000000   0.000000   1.000000 )  

     reciprocal axes: (cart. coord. in units 2 pi/alat)
               b(1) = (  1.000000  0.000000  0.000000 )  
               b(2) = (  0.000000  1.000000  0.000000 )  
               b(3) = (  0.000000  0.000000  1.000000 )  


     PseudoPot. # 1 for O  read from file:
     ../../PSP_DIR/O.pbe-rrkjus.UPF
     MD5 check sum: 390ba29e75625707450f3bd3f0eb6be9
     Pseudo is Ultrasoft, Zval =  6.0
     Generated by new atomic code, or converted to UPF format
     Using radial grid of 1269 points,  4 beta functions with: 
                l(1) =   0
                l(2) =   0
                l(3) =   1
                l(4) =   1
     Q(r) pseudized with 0 coefficients 


     PseudoPot. # 2 for Ti read from file:
     ../../PSP_DIR/Ti.pbe-sp-van_ak.UPF
     MD5 check sum: 8e4df49b7f0d34bbd5052bf3f5ea0213
     Pseudo is Ultrasoft, Zval = 12.0
     Generated by new atomic code, or converted to UPF format
     Using radial grid of  851 points,  6 beta functions with: 
                l(1) =   0
                l(2) =   0
                l(3) =   1
                l(4) =   1
                l(5) =   2
                l(6) =   2
     Q(r) pseudized with  8 coefficients,  rinner =    1.000   1.000   1.000
                                                       1.000   1.000

     PseudoPot. # 3 for Ba read from file:
     ../../PSP_DIR/Ba.pbe-nsp-van.UPF
     MD5 check sum: a011de417d3466d8e94df216395bc359
     Pseudo is Ultrasoft + core correction, Zval = 10.0
     Generated by new atomic code, or converted to UPF format
     Using radial grid of  907 points,  6 beta functions with: 
                l(1) =   0
                l(2) =   0
                l(3) =   1
                l(4) =   1
                l(5) =   2
                l(6) =   2
     Q(r) pseudized with  6 coefficients,  rinner =    1.200   1.200   1.200
                                                       1.200   1.200

     atomic species   valence    mass     pseudopotential
        O              6.00    15.99000     O ( 1.00)
        Ti            12.00    47.88000     Ti( 1.00)
        Ba            10.00   137.33000     Ba( 1.00)

      8 Sym. Ops. (no inversion) found



   Cartesian axes

     site n.     atom                  positions (alat units)
         1           Ba  tau(   1) = (   0.0000000   0.0000000   0.0000000  )
         2           Ti  tau(   2) = (   0.5100000   0.5000000   0.5000000  )
         3           O   tau(   3) = (   0.0000000   0.5000000   0.5000000  )
         4           O   tau(   4) = (   0.5000000   0.0000000   0.5000000  )
         5           O   tau(   5) = (   0.5000000   0.5000000   0.0000000  )

     number of k points=    18
                       cart. coord. in units 2pi/alat
        k(    1) = (   0.0833333   0.0833333   0.0833333), wk =   0.0740741
        k(    2) = (   0.0833333   0.0833333   0.2500000), wk =   0.1481481
        k(    3) = (   0.0833333   0.0833333   0.4166667), wk =   0.1481481
        k(    4) = (   0.0833333   0.2500000   0.2500000), wk =   0.0740741
        k(    5) = (   0.0833333   0.2500000   0.4166667), wk =   0.1481481
        k(    6) = (   0.0833333   0.4166667   0.4166667), wk =   0.0740741
        k(    7) = (   0.2500000   0.2500000   0.2500000), wk =   0.0740741
        k(    8) = (   0.2500000   0.2500000   0.4166667), wk =   0.1481481
        k(    9) = (   0.2500000   0.4166667   0.4166667), wk =   0.0740741
        k(   10) = (   0.4166667   0.4166667   0.4166667), wk =   0.0740741
        k(   11) = (   0.2500000  -0.0833333   0.0833333), wk =   0.0740741
        k(   12) = (   0.4166667  -0.0833333   0.0833333), wk =   0.0740741
        k(   13) = (   0.2500000  -0.2500000   0.0833333), wk =   0.1481481
        k(   14) = (   0.4166667  -0.2500000   0.0833333), wk =   0.1481481
        k(   15) = (   0.2500000   0.4166667   0.0833333), wk =   0.1481481
        k(   16) = (   0.4166667  -0.4166667   0.0833333), wk =   0.1481481
        k(   17) = (   0.4166667  -0.2500000   0.2500000), wk =   0.0740741
        k(   18) = (   0.4166667  -0.4166667   0.2500000), wk =   0.1481481

     Dense  grid:   155139 G-vectors     FFT dimensions: (  72,  72,  72)

     Smooth grid:    54795 G-vectors     FFT dimensions: (  48,  48,  48)

     Estimated max dynamical RAM per process >       6.37MB

     Estimated total allocated dynamical RAM >     178.31MB

     Initial potential from superposition of free atoms

     starting charge   38.98495, renormalised to   40.00000
     Starting wfc are   35 randomized atomic wfcs

     total cpu time spent up to now is        1.3 secs

     per-process dynamical memory:    58.4 Mb

     Self-consistent Calculation

     iteration #  1     ecut=   100.00 Ry     beta=0.60
     Davidson diagonalization with overlap
     ethr =  1.00E-02,  avg # of iterations =  2.6

     total cpu time spent up to now is        1.7 secs

     total energy              =    -302.90957653 Ry
     Harris-Foulkes estimate   =    -303.47697069 Ry
     estimated scf accuracy    <       0.79286812 Ry

     iteration #  2     ecut=   100.00 Ry     beta=0.60
     Davidson diagonalization with overlap
     ethr =  1.98E-03,  avg # of iterations =  4.0

     total cpu time spent up to now is        2.3 secs

     total energy              =    -302.37975111 Ry
     Harris-Foulkes estimate   =    -303.82913390 Ry
     estimated scf accuracy    <       5.43726277 Ry

     iteration #  3     ecut=   100.00 Ry     beta=0.60
     Davidson diagonalization with overlap
     ethr =  1.98E-03,  avg # of iterations =  3.3

     total cpu time spent up to now is        2.7 secs

     total energy              =    -303.31151440 Ry
     Harris-Foulkes estimate   =    -303.35553507 Ry
     estimated scf accuracy    <       0.16489165 Ry

     iteration #  4     ecut=   100.00 Ry     beta=0.60
     Davidson diagonalization with overlap
     ethr =  4.12E-04,  avg # of iterations =  1.2

     total cpu time spent up to now is        3.1 secs

     total energy              =    -303.29889115 Ry
     Harris-Foulkes estimate   =    -303.31989009 Ry
     estimated scf accuracy    <       0.06053299 Ry

     iteration #  5     ecut=   100.00 Ry     beta=0.60
     Davidson diagonalization with overlap
     ethr =  1.51E-04,  avg # of iterations =  3.2

     total cpu time spent up to now is        3.6 secs

     total energy              =    -303.31159602 Ry
     Harris-Foulkes estimate   =    -303.31157333 Ry
     estimated scf accuracy    <       0.00043271 Ry

     iteration #  6     ecut=   100.00 Ry     beta=0.60
     Davidson diagonalization with overlap
     ethr =  1.08E-06,  avg # of iterations =  4.4

     total cpu time spent up to now is        4.1 secs

     total energy              =    -303.31163146 Ry
     Harris-Foulkes estimate   =    -303.31182006 Ry
     estimated scf accuracy    <       0.00045056 Ry

     iteration #  7     ecut=   100.00 Ry     beta=0.60
     Davidson diagonalization with overlap
     ethr =  1.08E-06,  avg # of iterations =  2.7

     total cpu time spent up to now is        4.5 secs

     total energy              =    -303.31170143 Ry
     Harris-Foulkes estimate   =    -303.31171824 Ry
     estimated scf accuracy    <       0.00005306 Ry

     iteration #  8     ecut=   100.00 Ry     beta=0.60
     Davidson diagonalization with overlap
     ethr =  1.33E-07,  avg # of iterations =  2.9

     total cpu time spent up to now is        5.0 secs

     total energy              =    -303.31170858 Ry
     Harris-Foulkes estimate   =    -303.31171648 Ry
     estimated scf accuracy    <       0.00002129 Ry

     iteration #  9     ecut=   100.00 Ry     beta=0.60
     Davidson diagonalization with overlap
     ethr =  5.32E-08,  avg # of iterations =  2.3

     total cpu time spent up to now is        5.3 secs

     total energy              =    -303.31171059 Ry
     Harris-Foulkes estimate   =    -303.31171111 Ry
     estimated scf accuracy    <       0.00000100 Ry

     iteration # 10     ecut=   100.00 Ry     beta=0.60
     Davidson diagonalization with overlap
     ethr =  2.50E-09,  avg # of iterations =  3.6

     total cpu time spent up to now is        5.8 secs

          k = 0.0833 0.0833 0.0833     band energies (ev):

   -45.0967 -21.3781 -21.3733 -21.3730 -13.1543  -5.7379  -5.0957  -5.0857
     1.6083   1.6097   1.7599   8.6197   8.8273   8.8285   9.5106   9.5165
     9.8976  10.5920  10.9192  10.9254  13.4003  13.4519  13.4633  15.9549

          k = 0.0833 0.0833 0.2500     band energies (ev):

   -45.0961 -21.4043 -21.3767 -21.3718 -13.0831  -5.8234  -5.0773  -4.9704
     1.6657   1.6774   1.9728   7.8781   8.5482   8.6372   9.1139   9.1258
     9.8175   9.9248  10.5916  10.6478  13.4832  14.1990  14.2116  15.9669

          k = 0.0833 0.0833 0.4167     band energies (ev):

   -45.0954 -21.4350 -21.3754 -21.3705 -13.0095  -5.9921  -5.0613  -4.7439
     1.7234   1.8526   2.0703   7.1174   8.3163   8.3906   8.5801   8.9438
     9.6509   9.8367  10.2323  10.3740  13.5264  14.9232  14.9367  15.9619

          k = 0.0833 0.2500 0.2500     band energies (ev):

   -45.0954 -21.4032 -21.4019 -21.3754 -13.0240  -5.7316  -5.0317  -4.9851
     1.5709   1.6859   2.0877   7.5597   8.0782   8.3135   8.7101   8.9055
     9.4792  10.0991  10.2523  10.7136  14.1765  14.3183  14.5683  16.4864

          k = 0.0833 0.2500 0.4167     band energies (ev):

   -45.0948 -21.4329 -21.4008 -21.3742 -12.9631  -5.7505  -5.0045  -4.8521
     1.5792   1.7593   2.0186   7.0390   7.6935   7.9384   8.4176   8.7798
     9.5896   9.9415  10.1167  10.6843  14.2841  14.9648  15.0989  16.5820

          k = 0.0833 0.4167 0.4167     band energies (ev):

   -45.0942 -21.4310 -21.4307 -21.3730 -12.9155  -5.5011  -4.9729  -4.9302
     1.5268   1.5813   1.9961   6.8786   7.2470   7.2627   8.4418   8.4672
     9.3542  10.1891  10.3375  11.0311  14.9770  15.0149  15.4165  16.7717

          k = 0.2500 0.2500 0.2500     band energies (ev):

   -45.0948 -21.4061 -21.4013 -21.4005 -12.9726  -5.5582  -4.9906  -4.9813
     1.4053   1.4070   2.1534   7.3402   8.0213   8.0306   8.5965   8.7933
     8.8001  10.4110  10.4721  10.4778  14.6610  14.6823  14.6870  17.7330

          k = 0.2500 0.2500 0.4167     band energies (ev):

   -45.0942 -21.4311 -21.4044 -21.3994 -12.9200  -5.4912  -4.9363  -4.8709
     1.2420   1.4226   1.8915   7.0136   7.6953   7.9960   8.0831   8.7991
     8.9640  10.2283  10.5541  10.5910  14.7766  15.1718  15.2212  17.7036

          k = 0.2500 0.4167 0.4167     band energies (ev):

   -45.0936 -21.4294 -21.4291 -21.4030 -12.8758  -5.2246  -4.8877  -4.8652
     1.1216   1.1620   1.5162   6.8784   7.2658   7.9216   8.1098   8.7412
     8.8345  10.4786  10.5816  10.9931  15.2917  15.3060  15.5276  18.0493

          k = 0.4167 0.4167 0.4167     band energies (ev):

   -45.0929 -21.4326 -21.4277 -21.4275 -12.8354  -4.9212  -4.8053  -4.7967
     0.8219   0.8238   1.0046   6.7375   7.2647   7.2721   8.6189   8.8933
     8.8972  10.9130  10.9183  10.9941  15.6468  15.6490  15.6566  18.7063

          k = 0.2500-0.0833 0.0833     band energies (ev):

   -45.0961 -21.4092 -21.3719 -21.3717 -13.0832  -5.8181  -5.0697  -4.9828
     1.6645   1.6775   1.9738   7.8731   8.5447   8.6326   9.1123   9.1234
     9.8143   9.9390  10.6212  10.6255  13.4627  14.2125  14.2222  15.9568

          k = 0.4167-0.0833 0.0833     band energies (ev):

   -45.0954 -21.4400 -21.3706 -21.3704 -13.0096  -5.9856  -5.0537  -4.7572
     1.7219   1.8515   2.0728   7.1041   8.3049   8.3863   8.5878   8.9468
     9.6405   9.8399  10.2674  10.3690  13.5059  14.9318  14.9453  15.9531

          k = 0.2500-0.2500 0.0833     band energies (ev):

   -45.0954 -21.4076 -21.4024 -21.3705 -13.0240  -5.7257  -5.0391  -4.9829
     1.5719   1.6848   2.0879   7.5583   8.0644   8.3172   8.7039   8.8969
     9.5059  10.1045  10.2425  10.7109  14.1820  14.3198  14.5732  16.4809

          k = 0.4167-0.2500 0.0833     band energies (ev):

   -45.0948 -21.4380 -21.4008 -21.3693 -12.9631  -5.7419  -4.9997  -4.8641
     1.5786   1.7610   2.0178   7.0288   7.6686   7.9562   8.4104   8.7717
     9.6123   9.9425  10.1273  10.6762  14.2813  14.9713  15.1038  16.5795

          k = 0.2500 0.4167 0.0833     band energies (ev):

   -45.0948 -21.4329 -21.4058 -21.3693 -12.9631  -5.7462  -5.0084  -4.8516
     1.5809   1.7586   2.0180   7.0393   7.6850   7.9368   8.4047   8.7804
     9.6030   9.9425  10.1234  10.6779  14.2949  14.9612  15.1028  16.5833

          k = 0.4167-0.4167 0.0833     band energies (ev):

   -45.0942 -21.4359 -21.4308 -21.3681 -12.9155  -5.4895  -4.9801  -4.9330
     1.5279   1.5826   1.9944   6.8758   7.2168   7.2792   8.4188   8.4688
     9.3594  10.2061  10.3558  11.0213  14.9790  15.0164  15.4202  16.7795

          k = 0.4167-0.2500 0.2500     band energies (ev):

   -45.0942 -21.4361 -21.3998 -21.3990 -12.9200  -5.4851  -4.9291  -4.8835
     1.2405   1.4250   1.8906   7.0050   7.6807   8.0024   8.0859   8.8015
     8.9705  10.2377  10.5493  10.5895  14.7720  15.1744  15.2245  17.6996

          k = 0.4167-0.4167 0.2500     band energies (ev):

   -45.0936 -21.4342 -21.4292 -21.3980 -12.8759  -5.2153  -4.8954  -4.8659
     1.1215   1.1633   1.5151   6.8755   7.2599   7.9166   8.1097   8.7392
     8.8353  10.4892  10.5954  10.9823  15.2898  15.3050  15.5310  18.0590

     highest occupied, lowest unoccupied level (ev):    11.0311   13.4003

!    total energy              =    -303.31171114 Ry
     Harris-Foulkes estimate   =    -303.31171120 Ry
     estimated scf accuracy    <       0.00000012 Ry

     The total energy is the sum of the following terms:

     one-electron contribution =     -65.00371675 Ry
     hartree contribution      =      57.94110138 Ry
     xc contribution           =     -84.35532102 Ry
     ewald contribution        =    -211.89562325 Ry
     scf correction            =       0.00184849 Ry

     iteration # 11     ecut=   100.00 Ry     beta=0.60
     Davidson diagonalization with overlap
     ethr =  3.12E-10,  avg # of iterations =  2.9

     total cpu time spent up to now is        6.3 secs

     total energy              =    -303.31171117 Ry
     Harris-Foulkes estimate   =    -303.31171117 Ry
     estimated scf accuracy    <          4.0E-09 Ry

     iteration # 12     ecut=   100.00 Ry     beta=0.60
     Davidson diagonalization with overlap
     ethr =  1.00E-11,  avg # of iterations =  3.0

     total cpu time spent up to now is        6.7 secs

     total energy              =    -303.31171117 Ry
     Harris-Foulkes estimate   =    -303.31171117 Ry
     estimated scf accuracy    <          2.9E-10 Ry

     iteration # 13     ecut=   100.00 Ry     beta=0.60
     Davidson diagonalization with overlap
     ethr =  7.14E-13,  avg # of iterations =  2.7

     total cpu time spent up to now is        7.2 secs

     total energy              =    -303.31171117 Ry
     Harris-Foulkes estimate   =    -303.31171117 Ry
     estimated scf accuracy    <          3.4E-11 Ry

     iteration # 14     ecut=   100.00 Ry     beta=0.60
     Davidson diagonalization with overlap
     ethr =  1.00E-13,  avg # of iterations =  3.2

     total cpu time spent up to now is        7.6 secs

     End of self-consistent calculation

          k = 0.0833 0.0833 0.0833 (  6850 PWs)   bands (ev):

   -45.0950 -21.3765 -21.3717 -21.3714 -13.1548  -5.7377  -5.0954  -5.0854
     1.6079   1.6093   1.7595   8.6200   8.8276   8.8288   9.5108   9.5167
     9.8978  10.5923  10.9194  10.9256  13.4015  13.4530  13.4644  15.9563

          k = 0.0833 0.0833 0.2500 (  6839 PWs)   bands (ev):

   -45.0944 -21.4027 -21.3751 -21.3702 -13.0837  -5.8232  -5.0771  -4.9701
     1.6653   1.6770   1.9724   7.8785   8.5485   8.6375   9.1141   9.1261
     9.8177   9.9251  10.5919  10.6480  13.4843  14.2002  14.2128  15.9683

          k = 0.0833 0.0833 0.4167 (  6839 PWs)   bands (ev):

   -45.0937 -21.4334 -21.3738 -21.3689 -13.0100  -5.9919  -5.0610  -4.7437
     1.7230   1.8522   2.0699   7.1179   8.3166   8.3909   8.5804   8.9440
     9.6511   9.8369  10.2326  10.3743  13.5275  14.9244  14.9379  15.9632

          k = 0.0833 0.2500 0.2500 (  6847 PWs)   bands (ev):

   -45.0937 -21.4016 -21.4003 -21.3738 -13.0245  -5.7314  -5.0314  -4.9848
     1.5705   1.6855   2.0872   7.5601   8.0787   8.3138   8.7103   8.9058
     9.4794  10.0993  10.2526  10.7139  14.1776  14.3195  14.5694  16.4877

          k = 0.0833 0.2500 0.4167 (  6833 PWs)   bands (ev):

   -45.0931 -21.4314 -21.3992 -21.3726 -12.9636  -5.7503  -5.0042  -4.8518
     1.5788   1.7589   2.0181   7.0394   7.6938   7.9388   8.4179   8.7801
     9.5898   9.9417  10.1169  10.6846  14.2853  14.9660  15.1001  16.5833

          k = 0.0833 0.4167 0.4167 (  6854 PWs)   bands (ev):

   -45.0925 -21.4294 -21.4291 -21.3714 -12.9160  -5.5009  -4.9727  -4.9299
     1.5264   1.5809   1.9956   6.8790   7.2472   7.2633   8.4421   8.4675
     9.3545  10.1893  10.3377  11.0313  14.9782  15.0161  15.4177  16.7729

          k = 0.2500 0.2500 0.2500 (  6881 PWs)   bands (ev):

   -45.0931 -21.4045 -21.3997 -21.3989 -12.9732  -5.5579  -4.9904  -4.9810
     1.4049   1.4066   2.1530   7.3404   8.0218   8.0311   8.5969   8.7936
     8.8003  10.4112  10.4723  10.4780  14.6622  14.6835  14.6882  17.7342

          k = 0.2500 0.2500 0.4167 (  6839 PWs)   bands (ev):

   -45.0925 -21.4295 -21.4028 -21.3978 -12.9205  -5.4910  -4.9360  -4.8707
     1.2416   1.4222   1.8910   7.0141   7.6957   7.9964   8.0834   8.7993
     8.9643  10.2285  10.5543  10.5912  14.7778  15.1730  15.2224  17.7048

          k = 0.2500 0.4167 0.4167 (  6851 PWs)   bands (ev):

   -45.0919 -21.4278 -21.4275 -21.4014 -12.8764  -5.2244  -4.8874  -4.8649
     1.1213   1.1616   1.5158   6.8788   7.2664   7.9219   8.1101   8.7415
     8.8348  10.4787  10.5818  10.9933  15.2929  15.3072  15.5288  18.0504

          k = 0.4167 0.4167 0.4167 (  6854 PWs)   bands (ev):

   -45.0912 -21.4310 -21.4261 -21.4259 -12.8360  -4.9209  -4.8051  -4.7964
     0.8215   0.8235   1.0042   6.7379   7.2652   7.2727   8.6192   8.8935
     8.8975  10.9132  10.9185  10.9943  15.6480  15.6503  15.6578  18.7063

          k = 0.2500-0.0833 0.0833 (  6839 PWs)   bands (ev):

   -45.0944 -21.4076 -21.3703 -21.3701 -13.0837  -5.8179  -5.0694  -4.9826
     1.6641   1.6771   1.9734   7.8735   8.5450   8.6329   9.1126   9.1236
     9.8145   9.9392  10.6215  10.6258  13.4639  14.2136  14.2233  15.9581

          k = 0.4167-0.0833 0.0833 (  6839 PWs)   bands (ev):

   -45.0937 -21.4384 -21.3690 -21.3688 -13.0101  -5.9853  -5.0534  -4.7569
     1.7214   1.8511   2.0724   7.1045   8.3051   8.3866   8.5880   8.9470
     9.6407   9.8401  10.2677  10.3693  13.5071  14.9330  14.9465  15.9545

          k = 0.2500-0.2500 0.0833 (  6847 PWs)   bands (ev):

   -45.0937 -21.4060 -21.4008 -21.3689 -13.0245  -5.7254  -5.0389  -4.9826
     1.5715   1.6844   2.0874   7.5586   8.0649   8.3175   8.7042   8.8972
     9.5062  10.1047  10.2428  10.7111  14.1831  14.3210  14.5743  16.4822

          k = 0.4167-0.2500 0.0833 (  6833 PWs)   bands (ev):

   -45.0931 -21.4364 -21.3992 -21.3677 -12.9637  -5.7417  -4.9995  -4.8638
     1.5781   1.7606   2.0174   7.0292   7.6689   7.9566   8.4107   8.7719
     9.6126   9.9427  10.1275  10.6764  14.2824  14.9725  15.1050  16.5808

          k = 0.2500 0.4167 0.0833 (  6833 PWs)   bands (ev):

   -45.0931 -21.4314 -21.4042 -21.3677 -12.9636  -5.7460  -5.0082  -4.8513
     1.5805   1.7582   2.0176   7.0398   7.6853   7.9372   8.4050   8.7807
     9.6033   9.9427  10.1236  10.6782  14.2960  14.9624  15.1039  16.5846

          k = 0.4167-0.4167 0.0833 (  6854 PWs)   bands (ev):

   -45.0925 -21.4343 -21.4293 -21.3665 -12.9161  -5.4892  -4.9798  -4.9327
     1.5275   1.5822   1.9939   6.8762   7.2172   7.2797   8.4191   8.4691
     9.3597  10.2063  10.3560  11.0215  14.9802  15.0176  15.4214  16.7808

          k = 0.4167-0.2500 0.2500 (  6839 PWs)   bands (ev):

   -45.0925 -21.4345 -21.3982 -21.3974 -12.9205  -5.4848  -4.9288  -4.8832
     1.2401   1.4247   1.8902   7.0054   7.6810   8.0029   8.0862   8.8017
     8.9708  10.2380  10.5495  10.5897  14.7731  15.1755  15.2257  17.7008

          k = 0.4167-0.4167 0.2500 (  6851 PWs)   bands (ev):

   -45.0919 -21.4326 -21.4276 -21.3964 -12.8764  -5.2150  -4.8951  -4.8656
     1.1211   1.1630   1.5147   6.8759   7.2604   7.9169   8.1101   8.7394
     8.8355  10.4894  10.5956  10.9825  15.2910  15.3062  15.5322  18.0601

     highest occupied, lowest unoccupied level (ev):    11.0313   13.4015

!    total energy              =    -303.31171117 Ry
     Harris-Foulkes estimate   =    -303.31171117 Ry
     estimated scf accuracy    <          1.0E-12 Ry

     The total energy is the sum of the following terms:

     one-electron contribution =     -65.00170236 Ry
     hartree contribution      =      57.94092587 Ry
     xc contribution           =     -84.35531144 Ry
     ewald contribution        =    -211.89562325 Ry

     convergence has been achieved in  14 iterations

     Forces acting on atoms (cartesian axes, Ry/au):

     atom    1 type  3   force =     0.00574501    0.00000000    0.00000000
     atom    2 type  2   force =    -0.00385101    0.00000000    0.00000000
     atom    3 type  1   force =    -0.00260499    0.00000000    0.00000000
     atom    4 type  1   force =     0.00035549    0.00000000    0.00000000
     atom    5 type  1   force =     0.00035549    0.00000000    0.00000000

     Total force =     0.007408     Total SCF correction =     0.000001


     Computing stress (Cartesian axis) and pressure

          total   stress  (Ry/bohr**3)                   (kbar)     P=   91.16
   0.00063020   0.00000000   0.00000000         92.71      0.00      0.00
   0.00000000   0.00061448   0.00000000          0.00     90.39      0.00
   0.00000000   0.00000000   0.00061448          0.00      0.00     90.39


     BFGS Geometry Optimization

     number of scf cycles    =   1
     number of bfgs steps    =   0

     enthalpy new            =    -303.3117111732 Ry

     new trust radius        =       0.0634298749 bohr
     new conv_thr            =            1.0E-12 Ry

     new unit-cell volume =    424.35157 a.u.^3 (    62.88241 Ang^3 )
     density =      6.15760 g/cm^3

CELL_PARAMETERS (alat=  7.40000000)
   1.015754923   0.000000000   0.000000000
   0.000000000   1.015361891   0.000000000
   0.000000000   0.000000000   1.015361891

ATOMIC_POSITIONS (crystal)
Ba       0.000776353   0.000000000   0.000000000
Ti       0.509479593   0.500000000   0.500000000
O       -0.000352025   0.500000000   0.500000000
O        0.500048040   0.000000000   0.500000000
O        0.500048040   0.500000000   0.000000000



     Writing output data file bto.save
     NEW-OLD atomic charge density approx. for the potential
     extrapolated charge   41.75724, renormalised to   40.00000

     total cpu time spent up to now is        9.1 secs

     per-process dynamical memory:    71.3 Mb

     Self-consistent Calculation

     iteration #  1     ecut=   100.00 Ry     beta=0.60
     Davidson diagonalization with overlap
     ethr =  1.00E-06,  avg # of iterations = 14.1

     total cpu time spent up to now is       10.3 secs

     total energy              =    -302.99253002 Ry
     Harris-Foulkes estimate   =    -300.73675356 Ry
     estimated scf accuracy    <       0.23764747 Ry

     iteration #  2     ecut=   100.00 Ry     beta=0.60
     Davidson diagonalization with overlap
     ethr =  5.94E-04,  avg # of iterations =  5.0

     total cpu time spent up to now is       11.0 secs

     total energy              =    -303.17932370 Ry
     Harris-Foulkes estimate   =    -303.55331044 Ry
     estimated scf accuracy    <       1.28662041 Ry

     iteration #  3     ecut=   100.00 Ry     beta=0.60
     Davidson diagonalization with overlap
     ethr =  5.94E-04,  avg # of iterations =  3.4

     total cpu time spent up to now is       11.4 secs

     total energy              =    -303.32254125 Ry
     Harris-Foulkes estimate   =    -303.38084269 Ry
     estimated scf accuracy    <       0.23301287 Ry

     iteration #  4     ecut=   100.00 Ry     beta=0.60
     Davidson diagonalization with overlap
     ethr =  5.83E-04,  avg # of iterations =  1.0

     total cpu time spent up to now is       11.8 secs

     total energy              =    -303.32534784 Ry
     Harris-Foulkes estimate   =    -303.33664837 Ry
     estimated scf accuracy    <       0.06350954 Ry

     iteration #  5     ecut=   100.00 Ry     beta=0.60
     Davidson diagonalization with overlap
     ethr =  1.59E-04,  avg # of iterations =  2.9

     total cpu time spent up to now is       12.2 secs

     total energy              =    -303.32520670 Ry
     Harris-Foulkes estimate   =    -303.32898993 Ry
     estimated scf accuracy    <       0.03378017 Ry

     iteration #  6     ecut=   100.00 Ry     beta=0.60
     Davidson diagonalization with overlap
     ethr =  8.45E-05,  avg # of iterations =  1.2

     total cpu time spent up to now is       12.6 secs

     total energy              =    -303.32343513 Ry
     Harris-Foulkes estimate   =    -303.32558542 Ry
     estimated scf accuracy    <       0.02401158 Ry

     iteration #  7     ecut=   100.00 Ry     beta=0.60
     Davidson diagonalization with overlap
     ethr =  6.00E-05,  avg # of iterations =  1.0

     total cpu time spent up to now is       12.9 secs

     total energy              =    -303.31854747 Ry
     Harris-Foulkes estimate   =    -303.32363788 Ry
     estimated scf accuracy    <       0.01754051 Ry

     iteration #  8     ecut=   100.00 Ry     beta=0.60
     Davidson diagonalization with overlap
     ethr =  4.39E-05,  avg # of iterations =  1.7

     total cpu time spent up to now is       13.3 secs

     total energy              =    -303.31587307 Ry
     Harris-Foulkes estimate   =    -303.31932045 Ry
     estimated scf accuracy    <       0.00549164 Ry

     iteration #  9     ecut=   100.00 Ry     beta=0.60
     Davidson diagonalization with overlap
     ethr =  1.37E-05,  avg # of iterations =  3.4

     total cpu time spent up to now is       13.8 secs

     total energy              =    -303.31768148 Ry
     Harris-Foulkes estimate   =    -303.31803768 Ry
     estimated scf accuracy    <       0.00047943 Ry

     iteration # 10     ecut=   100.00 Ry     beta=0.60
     Davidson diagonalization with overlap
     ethr =  1.20E-06,  avg # of iterations =  3.3

     total cpu time spent up to now is       14.3 secs

          k = 0.0820 0.0821 0.0821     band energies (ev):

   -46.0616 -22.3011 -22.2972 -22.2970 -13.9263  -6.3599  -5.7030  -5.6942
     0.8523   0.8527   0.9806   7.8987   8.0890   8.0895   8.9148   8.9188
     9.2829   9.8476  10.1632  10.1675  12.5549  12.6033  12.6127  14.8600

          k = 0.0820 0.0821 0.2462     band energies (ev):

   -46.0611 -22.3215 -22.3001 -22.2961 -13.8704  -6.4087  -5.6868  -5.6103
     0.9024   0.9067   1.1548   7.2169   7.8581   7.9516   8.5046   8.5174
     9.2045   9.2274   9.8571   9.9078  12.6293  13.2958  13.3060  14.8657

          k = 0.0820 0.0821 0.4104     band energies (ev):

   -46.0606 -22.3458 -22.2991 -22.2951 -13.8129  -6.5316  -5.6727  -5.4307
     0.9535   1.0561   1.2269   6.5143   7.6797   7.7554   7.9742   8.3165
     9.0377   9.1487   9.5183   9.6607  12.6677  13.9595  13.9690  14.8591

          k = 0.0820 0.2462 0.2462     band energies (ev):

   -46.0606 -22.3207 -22.3199 -22.2991 -13.8233  -6.3176  -5.6572  -5.6166
     0.8105   0.9184   1.2487   6.9348   7.4176   7.7026   8.0281   8.3215
     8.8155   9.4563   9.5429   9.9787  13.2720  13.4006  13.6431  15.3520

          k = 0.0820 0.2462 0.4104     band energies (ev):

   -46.0601 -22.3443 -22.3190 -22.2982 -13.7750  -6.3139  -5.6308  -5.5176
     0.8215   0.9685   1.1903   6.4396   7.1229   7.3019   7.7943   8.1603
     8.8983   9.2707   9.4417   9.9750  13.3680  13.9940  14.1277  15.4395

          k = 0.0820 0.4104 0.4104     band energies (ev):

   -46.0597 -22.3429 -22.3427 -22.2973 -13.7363  -6.0849  -5.6163  -5.5784
     0.7624   0.8131   1.1765   6.2696   6.6778   6.7027   7.8447   7.8998
     8.6304   9.4824   9.6195  10.3228  14.0030  14.0363  14.4229  15.6132

          k = 0.2461 0.2462 0.2462     band energies (ev):

   -46.0601 -22.3232 -22.3194 -22.3188 -13.7821  -6.1612  -5.6226  -5.6139
     0.6753   0.6773   1.2987   6.7420   7.3790   7.3866   7.9379   8.1546
     8.1597   9.7515   9.7669   9.7848  13.7134  13.7435  13.7466  16.5457

          k = 0.2461 0.2462 0.4104     band energies (ev):

   -46.0597 -22.3429 -22.3219 -22.3179 -13.7399  -6.0845  -5.5759  -5.5320
     0.5417   0.6826   1.0799   6.4092   7.1043   7.3587   7.4365   8.1099
     8.2991   9.5685   9.8816   9.8979  13.8192  14.1960  14.2282  16.5138

          k = 0.2461 0.4104 0.4104     band energies (ev):

   -46.0592 -22.3416 -22.3415 -22.3208 -13.7040  -5.8443  -5.5436  -5.5233
     0.4329   0.4598   0.7675   6.2595   6.6817   7.2930   7.4504   8.0699
     8.1391   9.8020   9.8920  10.2951  14.2926  14.3061  14.5190  16.8562

          k = 0.4102 0.4104 0.4104     band energies (ev):

   -46.0587 -22.3442 -22.3404 -22.3403 -13.6713  -5.5796  -5.4752  -5.4668
     0.1740   0.1766   0.3297   6.1097   6.6833   6.6876   7.9096   8.1562
     8.1582  10.2207  10.2271  10.3013  14.6217  14.6232  14.6277  17.7172

          k = 0.2461-0.0821 0.0821     band energies (ev):

   -46.0611 -22.3255 -22.2962 -22.2960 -13.8706  -6.4049  -5.6802  -5.6213
     0.9017   0.9071   1.1553   7.2129   7.8559   7.9496   8.5090   8.5095
     9.2038   9.2388   9.8829   9.8902  12.6126  13.3063  13.3121  14.8588

          k = 0.4102-0.0821 0.0821     band energies (ev):

   -46.0606 -22.3497 -22.2951 -22.2950 -13.8133  -6.5263  -5.6661  -5.4434
     0.9523   1.0556   1.2291   6.5056   7.6729   7.7534   7.9792   8.3188
     9.0312   9.1512   9.5489   9.6593  12.6511  13.9637  13.9726  14.8536

          k = 0.2461-0.2462 0.0821     band energies (ev):

   -46.0606 -22.3243 -22.3202 -22.2951 -13.8234  -6.3132  -5.6643  -5.6144
     0.8118   0.9179   1.2490   6.9340   7.4076   7.7043   8.0254   8.3155
     8.8395   9.4597   9.5371   9.9735  13.2769  13.4011  13.6453  15.3499

          k = 0.4102-0.2462 0.0821     band energies (ev):

   -46.0601 -22.3482 -22.3190 -22.2942 -13.7753  -6.3070  -5.6270  -5.5292
     0.8215   0.9707   1.1903   6.4333   7.1006   7.3192   7.7909   8.1551
     8.9187   9.2720   9.4517   9.9658  13.3663  13.9966  14.1287  15.4405

          k = 0.2461 0.4104 0.0821     band energies (ev):

   -46.0601 -22.3443 -22.3230 -22.2942 -13.7751  -6.3108  -5.6348  -5.5172
     0.8234   0.9684   1.1905   6.4399   7.1162   7.3005   7.7870   8.1620
     8.9092   9.2724   9.4472   9.9667  13.3758  13.9913  14.1299  15.4428

          k = 0.4102-0.4104 0.0821     band energies (ev):

   -46.0597 -22.3467 -22.3428 -22.2933 -13.7366  -6.0756  -5.6238  -5.5813
     0.7646   0.8152   1.1757   6.2682   6.6576   6.7142   7.8326   7.8986
     8.6364   9.4954   9.6337  10.3119  14.0038  14.0358  14.4237  15.6233

          k = 0.4102-0.2462 0.2462     band energies (ev):

   -46.0597 -22.3468 -22.3182 -22.3177 -13.7401  -6.0792  -5.5694  -5.5444
     0.5401   0.6856   1.0796   6.4041   7.0928   7.3644   7.4385   8.1125
     8.3047   9.5784   9.8834   9.8893  13.8167  14.1962  14.2284  16.5137

          k = 0.4102-0.4104 0.2462     band energies (ev):

   -46.0592 -22.3454 -22.3416 -22.3169 -13.7042  -5.8362  -5.5514  -5.5241
     0.4331   0.4621   0.7667   6.2580   6.6780   7.2902   7.4503   8.0690
     8.1406   9.8111   9.9030  10.2836  14.2908  14.3048  14.5198  16.8675

     highest occupied, lowest unoccupied level (ev):    10.3228   12.5549

!    total energy              =    -303.31781957 Ry
     Harris-Foulkes estimate   =    -303.31802326 Ry
     estimated scf accuracy    <       0.00036622 Ry

     The total energy is the sum of the following terms:

     one-electron contribution =     -69.67833932 Ry
     hartree contribution      =      59.09558779 Ry
     xc contribution           =     -84.19759319 Ry
     ewald contribution        =    -208.66323419 Ry
     scf correction            =       0.12575933 Ry

     iteration # 11     ecut=   100.00 Ry     beta=0.60
     Davidson diagonalization with overlap
     ethr =  9.16E-07,  avg # of iterations =  2.2

     total cpu time spent up to now is       14.8 secs

     total energy              =    -303.31789337 Ry
     Harris-Foulkes estimate   =    -303.31789730 Ry
     estimated scf accuracy    <       0.00001568 Ry

     iteration # 12     ecut=   100.00 Ry     beta=0.60
     Davidson diagonalization with overlap
     ethr =  3.92E-08,  avg # of iterations =  2.1

     total cpu time spent up to now is       15.2 secs

     total energy              =    -303.31789614 Ry
     Harris-Foulkes estimate   =    -303.31789682 Ry
     estimated scf accuracy    <       0.00000236 Ry

     iteration # 13     ecut=   100.00 Ry     beta=0.60
     Davidson diagonalization with overlap
     ethr =  5.91E-09,  avg # of iterations =  3.1

     total cpu time spent up to now is       15.6 secs

     total energy              =    -303.31789665 Ry
     Harris-Foulkes estimate   =    -303.31789683 Ry
     estimated scf accuracy    <       0.00000228 Ry

     iteration # 14     ecut=   100.00 Ry     beta=0.60
     Davidson diagonalization with overlap
     ethr =  5.71E-09,  avg # of iterations =  1.0

     total cpu time spent up to now is       16.0 secs

     total energy              =    -303.31789705 Ry
     Harris-Foulkes estimate   =    -303.31789670 Ry
     estimated scf accuracy    <       0.00000207 Ry

     iteration # 15     ecut=   100.00 Ry     beta=0.60
     Davidson diagonalization with overlap
     ethr =  5.18E-09,  avg # of iterations =  1.1

     total cpu time spent up to now is       16.3 secs

     total energy              =    -303.31789726 Ry
     Harris-Foulkes estimate   =    -303.31789711 Ry
     estimated scf accuracy    <       0.00000339 Ry

     iteration # 16     ecut=   100.00 Ry     beta=0.60
     Davidson diagonalization with overlap
     ethr =  5.18E-09,  avg # of iterations =  1.0

     total cpu time spent up to now is       16.7 secs

     total energy              =    -303.31789693 Ry
     Harris-Foulkes estimate   =    -303.31789727 Ry
     estimated scf accuracy    <       0.00000374 Ry

     iteration # 17     ecut=   100.00 Ry     beta=0.60
     Davidson diagonalization with overlap
     ethr =  5.18E-09,  avg # of iterations =  1.0

     total cpu time spent up to now is       17.0 secs

     total energy              =    -303.31789568 Ry
     Harris-Foulkes estimate   =    -303.31789695 Ry
     estimated scf accuracy    <       0.00000282 Ry

     iteration # 18     ecut=   100.00 Ry     beta=0.60
     Davidson diagonalization with overlap
     ethr =  5.18E-09,  avg # of iterations =  2.8

     total cpu time spent up to now is       17.4 secs

     total energy              =    -303.31789610 Ry
     Harris-Foulkes estimate   =    -303.31789609 Ry
     estimated scf accuracy    <       0.00000009 Ry

     iteration # 19     ecut=   100.00 Ry     beta=0.60
     Davidson diagonalization with overlap
     ethr =  2.30E-10,  avg # of iterations =  2.3

     total cpu time spent up to now is       17.8 secs

     total energy              =    -303.31789608 Ry
     Harris-Foulkes estimate   =    -303.31789611 Ry
     estimated scf accuracy    <       0.00000005 Ry

     iteration # 20     ecut=   100.00 Ry     beta=0.60
     Davidson diagonalization with overlap
     ethr =  1.24E-10,  avg # of iterations =  2.2

     total cpu time spent up to now is       18.2 secs

          k = 0.0820 0.0821 0.0821     band energies (ev):

   -45.9720 -22.2181 -22.2145 -22.2143 -13.9494  -6.3145  -5.6522  -5.6437
     0.8326   0.8331   0.9608   7.9405   8.1343   8.1347   8.9531   8.9570
     9.3227   9.8962  10.2109  10.2153  12.6154  12.6641  12.6735  14.9372

          k = 0.0820 0.0821 0.2462     band energies (ev):

   -45.9715 -22.2391 -22.2171 -22.2134 -13.8939  -6.3637  -5.6359  -5.5604
     0.8822   0.8874   1.1355   7.2647   7.9023   7.9957   8.5408   8.5552
     9.2434   9.2716   9.9041   9.9553  12.6910  13.3590  13.3695  14.9431

          k = 0.0820 0.0821 0.4104     band energies (ev):

   -45.9710 -22.2635 -22.2161 -22.2124 -13.8369  -6.4872  -5.6216  -5.3808
     0.9325   1.0356   1.2095   6.5675   7.7210   7.7982   8.0112   8.3507
     9.0750   9.1892   9.5661   9.7100  12.7305  14.0265  14.0364  14.9366

          k = 0.0820 0.2462 0.2462     band energies (ev):

   -45.9710 -22.2382 -22.2374 -22.2161 -13.8471  -6.2720  -5.6080  -5.5659
     0.7924   0.8984   1.2288   6.9783   7.4722   7.7438   8.0674   8.3585
     8.8585   9.4959   9.5903  10.0205  13.3358  13.4655  13.7057  15.4288

          k = 0.0820 0.2462 0.4104     band energies (ev):

   -45.9705 -22.2620 -22.2365 -22.2152 -13.7992  -6.2682  -5.5804  -5.4685
     0.8029   0.9508   1.1696   6.4913   7.1615   7.3508   7.8349   8.1961
     8.9440   9.3119   9.4828  10.0166  13.4331  14.0618  14.1934  15.5160

          k = 0.0820 0.4104 0.4104     band energies (ev):

   -45.9700 -22.2606 -22.2603 -22.2143 -13.7608  -6.0366  -5.5685  -5.5294
     0.7460   0.7963   1.1541   6.3196   6.7353   6.7358   7.8824   7.9359
     8.6829   9.5203   9.6576  10.3666  14.0712  14.1049  14.4894  15.6882

          k = 0.2461 0.2462 0.2462     band energies (ev):

   -45.9705 -22.2404 -22.2369 -22.2363 -13.8062  -6.1152  -5.5724  -5.5640
     0.6570   0.6590   1.2788   6.7825   7.4338   7.4413   7.9827   8.1889
     8.1940   9.7933   9.8087   9.8265  13.7789  13.8073  13.8106  16.6233

          k = 0.2461 0.2462 0.4104     band energies (ev):

   -45.9700 -22.2606 -22.2391 -22.2354 -13.7643  -6.0379  -5.5250  -5.4829
     0.5231   0.6659   1.0607   6.4598   7.1472   7.4132   7.4811   8.1426
     8.3366   9.6101   9.9228   9.9395  13.8853  14.2620  14.2960  16.5906

          k = 0.2461 0.4104 0.4104     band energies (ev):

   -45.9696 -22.2593 -22.2591 -22.2380 -13.7286  -5.7954  -5.4945  -5.4732
     0.4156   0.4434   0.7492   6.3087   6.7398   7.3313   7.4994   8.1038
     8.1734   9.8430   9.9332  10.3389  14.3609  14.3745  14.5868  16.9271

          k = 0.4102 0.4104 0.4104     band energies (ev):

   -45.9691 -22.2616 -22.2581 -22.2579 -13.6960  -5.5299  -5.4244  -5.4163
     0.1571   0.1596   0.3129   6.1566   6.7417   6.7459   7.9422   8.1890
     8.1908  10.2643  10.2706  10.3457  14.6910  14.6925  14.6971  17.7375

          k = 0.2461-0.0821 0.0821     band energies (ev):

   -45.9715 -22.2427 -22.2135 -22.2133 -13.8941  -6.3599  -5.6295  -5.5710
     0.8815   0.8878   1.1361   7.2609   7.9001   7.9936   8.5450   8.5479
     9.2425   9.2829   9.9289   9.9385  12.6741  13.3695  13.3759  14.9361

          k = 0.4102-0.0821 0.0821     band energies (ev):

   -45.9710 -22.2671 -22.2125 -22.2123 -13.8373  -6.4821  -5.6152  -5.3930
     0.9313   1.0352   1.2117   6.5590   7.7140   7.7960   8.0164   8.3531
     9.0686   9.1914   9.5966   9.7085  12.7136  14.0309  14.0402  14.9309

          k = 0.2461-0.2462 0.0821     band energies (ev):

   -45.9710 -22.2415 -22.2377 -22.2124 -13.8473  -6.2678  -5.6148  -5.5637
     0.7938   0.8978   1.2291   6.9775   7.4620   7.7459   8.0648   8.3525
     8.8822   9.4994   9.5841  10.0154  13.3406  13.4659  13.7082  15.4266

          k = 0.4102-0.2462 0.0821     band energies (ev):

   -45.9705 -22.2655 -22.2365 -22.2115 -13.7996  -6.2616  -5.5768  -5.4796
     0.8029   0.9530   1.1696   6.4852   7.1398   7.3676   7.8315   8.1912
     8.9642   9.3131   9.4923  10.0076  13.4311  14.0645  14.1947  15.5169

          k = 0.2461 0.4104 0.0821     band energies (ev):

   -45.9705 -22.2620 -22.2401 -22.2115 -13.7994  -6.2652  -5.5843  -5.4680
     0.8048   0.9507   1.1697   6.4915   7.1549   7.3496   7.8277   8.1978
     8.9550   9.3134   9.4877  10.0085  13.4409  14.0589  14.1957  15.5192

          k = 0.4102-0.4104 0.0821     band energies (ev):

   -45.9700 -22.2640 -22.2605 -22.2106 -13.7611  -6.0276  -5.5756  -5.5322
     0.7482   0.7984   1.1534   6.3182   6.7052   6.7575   7.8704   7.9349
     8.6887   9.5330   9.6714  10.3559  14.0719  14.1044  14.4904  15.6982

          k = 0.4102-0.2462 0.2462     band energies (ev):

   -45.9701 -22.2642 -22.2357 -22.2352 -13.7645  -6.0328  -5.5187  -5.4948
     0.5214   0.6689   1.0603   6.4549   7.1356   7.4192   7.4828   8.1454
     8.3420   9.6198   9.9243   9.9313  13.8826  14.2623  14.2964  16.5904

          k = 0.4102-0.4104 0.2462     band energies (ev):

   -45.9696 -22.2628 -22.2592 -22.2344 -13.7288  -5.7877  -5.5019  -5.4740
     0.4157   0.4457   0.7484   6.3073   6.7362   7.3283   7.4993   8.1029
     8.1749   9.8518   9.9440  10.3277  14.3590  14.3731  14.5879  16.9384

     highest occupied, lowest unoccupied level (ev):    10.3666   12.6154

!    total energy              =    -303.31789609 Ry
     Harris-Foulkes estimate   =    -303.31789609 Ry
     estimated scf accuracy    <          1.1E-09 Ry

     The total energy is the sum of the following terms:

     one-electron contribution =     -69.54953825 Ry
     hartree contribution      =      59.09218152 Ry
     xc contribution           =     -84.19719320 Ry
     ewald contribution        =    -208.66323419 Ry
     scf correction            =      -0.00011198 Ry

     iteration # 21     ecut=   100.00 Ry     beta=0.60
     Davidson diagonalization with overlap
     ethr =  2.81E-12,  avg # of iterations =  3.4

     total cpu time spent up to now is       18.8 secs

     total energy              =    -303.31789609 Ry
     Harris-Foulkes estimate   =    -303.31789609 Ry
     estimated scf accuracy    <          5.5E-10 Ry

     iteration # 22     ecut=   100.00 Ry     beta=0.60
     Davidson diagonalization with overlap
     ethr =  1.38E-12,  avg # of iterations =  2.7

     total cpu time spent up to now is       19.2 secs

     total energy              =    -303.31789609 Ry
     Harris-Foulkes estimate   =    -303.31789609 Ry
     estimated scf accuracy    <          1.2E-11 Ry

     iteration # 23     ecut=   100.00 Ry     beta=0.60
     Davidson diagonalization with overlap
     ethr =  1.00E-13,  avg # of iterations =  2.9

     total cpu time spent up to now is       19.6 secs

     total energy              =    -303.31789609 Ry
     Harris-Foulkes estimate   =    -303.31789609 Ry
     estimated scf accuracy    <          1.3E-12 Ry

     iteration # 24     ecut=   100.00 Ry     beta=0.60
     Davidson diagonalization with overlap
     ethr =  1.00E-13,  avg # of iterations =  1.0

     total cpu time spent up to now is       19.9 secs

     End of self-consistent calculation

          k = 0.0820 0.0821 0.0821 (  6850 PWs)   bands (ev):

   -45.9720 -22.2182 -22.2146 -22.2144 -13.9493  -6.3145  -5.6523  -5.6438
     0.8326   0.8331   0.9608   7.9405   8.1343   8.1346   8.9530   8.9569
     9.3227   9.8962  10.2109  10.2152  12.6153  12.6640  12.6734  14.9371

          k = 0.0820 0.0821 0.2462 (  6839 PWs)   bands (ev):

   -45.9716 -22.2392 -22.2172 -22.2135 -13.8939  -6.3637  -5.6360  -5.5605
     0.8822   0.8875   1.1355   7.2647   7.9022   7.9957   8.5408   8.5552
     9.2434   9.2715   9.9040   9.9552  12.6909  13.3589  13.3694  14.9430

          k = 0.0820 0.0821 0.4104 (  6839 PWs)   bands (ev):

   -45.9711 -22.2636 -22.2162 -22.2125 -13.8369  -6.4873  -5.6216  -5.3809
     0.9326   1.0357   1.2095   6.5675   7.7210   7.7981   8.0111   8.3506
     9.0750   9.1891   9.5661   9.7099  12.7304  14.0264  14.0363  14.9365

          k = 0.0820 0.2462 0.2462 (  6847 PWs)   bands (ev):

   -45.9711 -22.2383 -22.2375 -22.2162 -13.8471  -6.2720  -5.6081  -5.5660
     0.7925   0.8984   1.2288   6.9783   7.4721   7.7437   8.0674   8.3584
     8.8585   9.4958   9.5903  10.0205  13.3357  13.4654  13.7057  15.4287

          k = 0.0820 0.2462 0.4104 (  6833 PWs)   bands (ev):

   -45.9706 -22.2621 -22.2366 -22.2153 -13.7992  -6.2682  -5.5804  -5.4686
     0.8029   0.9508   1.1696   6.4912   7.1614   7.3507   7.8349   8.1961
     8.9440   9.3118   9.4828  10.0166  13.4330  14.0617  14.1933  15.5159

          k = 0.0820 0.4104 0.4104 (  6854 PWs)   bands (ev):

   -45.9701 -22.2606 -22.2604 -22.2144 -13.7607  -6.0366  -5.5685  -5.5294
     0.7460   0.7963   1.1541   6.3195   6.7352   6.7357   7.8824   7.9359
     8.6829   9.5203   9.6575  10.3665  14.0711  14.1048  14.4894  15.6881

          k = 0.2461 0.2462 0.2462 (  6881 PWs)   bands (ev):

   -45.9706 -22.2404 -22.2370 -22.2364 -13.8062  -6.1153  -5.5725  -5.5641
     0.6570   0.6590   1.2789   6.7824   7.4337   7.4412   7.9827   8.1888
     8.1940   9.7932   9.8086   9.8264  13.7788  13.8073  13.8106  16.6232

          k = 0.2461 0.2462 0.4104 (  6839 PWs)   bands (ev):

   -45.9701 -22.2607 -22.2392 -22.2355 -13.7643  -6.0379  -5.5250  -5.4830
     0.5231   0.6660   1.0607   6.4597   7.1472   7.4132   7.4811   8.1425
     8.3365   9.6100   9.9228   9.9394  13.8852  14.2619  14.2959  16.5905

          k = 0.2461 0.4104 0.4104 (  6851 PWs)   bands (ev):

   -45.9697 -22.2594 -22.2592 -22.2381 -13.7286  -5.7955  -5.4946  -5.4733
     0.4156   0.4435   0.7492   6.3086   6.7397   7.3312   7.4993   8.1037
     8.1733   9.8430   9.9331  10.3388  14.3608  14.3744  14.5867  16.9270

          k = 0.4102 0.4104 0.4104 (  6854 PWs)   bands (ev):

   -45.9692 -22.2617 -22.2582 -22.2580 -13.6959  -5.5299  -5.4244  -5.4164
     0.1571   0.1597   0.3130   6.1566   6.7416   6.7458   7.9421   8.1889
     8.1908  10.2642  10.2705  10.3456  14.6909  14.6924  14.6970  17.7375

          k = 0.2461-0.0821 0.0821 (  6839 PWs)   bands (ev):

   -45.9716 -22.2428 -22.2136 -22.2134 -13.8940  -6.3600  -5.6296  -5.5710
     0.8815   0.8879   1.1361   7.2609   7.9000   7.9935   8.5450   8.5478
     9.2424   9.2829   9.9289   9.9384  12.6741  13.3694  13.3758  14.9360

          k = 0.4102-0.0821 0.0821 (  6839 PWs)   bands (ev):

   -45.9711 -22.2672 -22.2125 -22.2124 -13.8372  -6.4822  -5.6153  -5.3931
     0.9314   1.0352   1.2117   6.5590   7.7139   7.7959   8.0164   8.3530
     9.0685   9.1914   9.5965   9.7085  12.7135  14.0308  14.0402  14.9308

          k = 0.2461-0.2462 0.0821 (  6847 PWs)   bands (ev):

   -45.9711 -22.2416 -22.2378 -22.2125 -13.8472  -6.2678  -5.6149  -5.5638
     0.7938   0.8979   1.2292   6.9774   7.4620   7.7458   8.0647   8.3525
     8.8822   9.4994   9.5841  10.0154  13.3405  13.4659  13.7081  15.4265

          k = 0.4102-0.2462 0.0821 (  6833 PWs)   bands (ev):

   -45.9706 -22.2656 -22.2366 -22.2116 -13.7995  -6.2616  -5.5769  -5.4797
     0.8029   0.9530   1.1696   6.4851   7.1397   7.3675   7.8314   8.1911
     8.9641   9.3130   9.4923  10.0076  13.4311  14.0644  14.1946  15.5168

          k = 0.2461 0.4104 0.0821 (  6833 PWs)   bands (ev):

   -45.9706 -22.2621 -22.2402 -22.2116 -13.7993  -6.2653  -5.5843  -5.4681
     0.8048   0.9507   1.1698   6.4914   7.1549   7.3496   7.8276   8.1977
     8.9550   9.3134   9.4877  10.0085  13.4409  14.0588  14.1956  15.5191

          k = 0.4102-0.4104 0.0821 (  6854 PWs)   bands (ev):

   -45.9701 -22.2641 -22.2605 -22.2107 -13.7610  -6.0277  -5.5756  -5.5323
     0.7483   0.7984   1.1534   6.3182   6.7052   6.7574   7.8704   7.9348
     8.6887   9.5329   9.6714  10.3558  14.0718  14.1043  14.4904  15.6982

          k = 0.4102-0.2462 0.2462 (  6839 PWs)   bands (ev):

   -45.9701 -22.2643 -22.2358 -22.2353 -13.7644  -6.0328  -5.5187  -5.4949
     0.5215   0.6689   1.0604   6.4549   7.1356   7.4191   7.4827   8.1453
     8.3420   9.6197   9.9242   9.9313  13.8825  14.2623  14.2963  16.5903

          k = 0.4102-0.4104 0.2462 (  6851 PWs)   bands (ev):

   -45.9697 -22.2629 -22.2593 -22.2345 -13.7287  -5.7878  -5.5020  -5.4741
     0.4157   0.4457   0.7484   6.3072   6.7362   7.3282   7.4992   8.1029
     8.1749   9.8518   9.9439  10.3277  14.3589  14.3730  14.5878  16.9383

     highest occupied, lowest unoccupied level (ev):    10.3665   12.6153

!    total energy              =    -303.31789609 Ry
     Harris-Foulkes estimate   =    -303.31789609 Ry
     estimated scf accuracy    <          9.7E-14 Ry

     The total energy is the sum of the following terms:

     one-electron contribution =     -69.54971037 Ry
     hartree contribution      =      59.09224522 Ry
     xc contribution           =     -84.19719676 Ry
     ewald contribution        =    -208.66323419 Ry

     convergence has been achieved in  24 iterations

     Forces acting on atoms (cartesian axes, Ry/au):

     atom    1 type  3   force =     0.00429719    0.00000000    0.00000000
     atom    2 type  2   force =     0.00016891    0.00000000    0.00000000
     atom    3 type  1   force =    -0.00579608    0.00000000    0.00000000
     atom    4 type  1   force =     0.00066499    0.00000000    0.00000000
     atom    5 type  1   force =     0.00066499    0.00000000    0.00000000

     Total force =     0.007278     Total SCF correction =     0.000000


     Computing stress (Cartesian axis) and pressure

          total   stress  (Ry/bohr**3)                   (kbar)     P=    6.62
   0.00004994   0.00000000   0.00000000          7.35      0.00      0.00
   0.00000000   0.00004256   0.00000000          0.00      6.26      0.00
   0.00000000   0.00000000   0.00004256          0.00      0.00      6.26


     number of scf cycles    =   2
     number of bfgs steps    =   1

     enthalpy old            =    -303.3117111732 Ry
     enthalpy new            =    -303.3178960923 Ry

     CASE: enthalpy_new < enthalpy_old

     new trust radius        =       0.0064994303 bohr
     new conv_thr            =            5.8E-14 Ry

     new unit-cell volume =    426.02749 a.u.^3 (    63.13076 Ang^3 )
     density =      6.13337 g/cm^3

CELL_PARAMETERS (alat=  7.40000000)
   1.017228601   0.000000000   0.000000000
   0.000000000   1.016627727   0.000000000
   0.000000000   0.000000000   1.016627727

ATOMIC_POSITIONS (crystal)
Ba       0.001419960   0.000000000   0.000000000
Ti       0.509502177   0.500000000   0.500000000
O       -0.001216704   0.500000000   0.500000000
O        0.500147283   0.000000000   0.500000000
O        0.500147283   0.500000000   0.000000000



     Writing output data file bto.save
     NEW-OLD atomic charge density approx. for the potential
     extrapolated charge   40.15336, renormalised to   40.00000

     total cpu time spent up to now is       21.4 secs

     per-process dynamical memory:    71.3 Mb

     Self-consistent Calculation

     iteration #  1     ecut=   100.00 Ry     beta=0.60
     Davidson diagonalization with overlap
     ethr =  1.00E-06,  avg # of iterations =  4.2

     total cpu time spent up to now is       22.0 secs

     total energy              =    -303.31500711 Ry
     Harris-Foulkes estimate   =    -303.08776577 Ry
     estimated scf accuracy    <       0.00232029 Ry

     iteration #  2     ecut=   100.00 Ry     beta=0.60
     Davidson diagonalization with overlap
     ethr =  5.80E-06,  avg # of iterations =  4.2

     total cpu time spent up to now is       22.6 secs

     total energy              =    -303.31713673 Ry
     Harris-Foulkes estimate   =    -303.32041462 Ry
     estimated scf accuracy    <       0.01043591 Ry

     iteration #  3     ecut=   100.00 Ry     beta=0.60
     Davidson diagonalization with overlap
     ethr =  5.80E-06,  avg # of iterations =  3.2

     total cpu time spent up to now is       23.1 secs

     total energy              =    -303.31810880 Ry
     Harris-Foulkes estimate   =    -303.31835677 Ry
     estimated scf accuracy    <       0.00108596 Ry

     iteration #  4     ecut=   100.00 Ry     beta=0.60
     Davidson diagonalization with overlap
     ethr =  2.71E-06,  avg # of iterations =  1.3

     total cpu time spent up to now is       23.5 secs

     total energy              =    -303.31798987 Ry
     Harris-Foulkes estimate   =    -303.31816101 Ry
     estimated scf accuracy    <       0.00056256 Ry

     iteration #  5     ecut=   100.00 Ry     beta=0.60
     Davidson diagonalization with overlap
     ethr =  1.41E-06,  avg # of iterations =  2.2

     total cpu time spent up to now is       23.9 secs

     total energy              =    -303.31800405 Ry
     Harris-Foulkes estimate   =    -303.31802891 Ry
     estimated scf accuracy    <       0.00014266 Ry

     iteration #  6     ecut=   100.00 Ry     beta=0.60
     Davidson diagonalization with overlap
     ethr =  3.57E-07,  avg # of iterations =  1.3

     total cpu time spent up to now is       24.2 secs

     total energy              =    -303.31798626 Ry
     Harris-Foulkes estimate   =    -303.31800893 Ry
     estimated scf accuracy    <       0.00006728 Ry

     iteration #  7     ecut=   100.00 Ry     beta=0.60
     Davidson diagonalization with overlap
     ethr =  1.68E-07,  avg # of iterations =  2.0

     total cpu time spent up to now is       24.6 secs

     total energy              =    -303.31798746 Ry
     Harris-Foulkes estimate   =    -303.31799250 Ry
     estimated scf accuracy    <       0.00000903 Ry

     iteration #  8     ecut=   100.00 Ry     beta=0.60
     Davidson diagonalization with overlap
     ethr =  2.26E-08,  avg # of iterations =  3.1

     total cpu time spent up to now is       25.1 secs

     total energy              =    -303.31799072 Ry
     Harris-Foulkes estimate   =    -303.31799086 Ry
     estimated scf accuracy    <       0.00000056 Ry

     iteration #  9     ecut=   100.00 Ry     beta=0.60
     Davidson diagonalization with overlap
     ethr =  1.39E-09,  avg # of iterations =  1.9

     total cpu time spent up to now is       25.5 secs

     total energy              =    -303.31799074 Ry
     Harris-Foulkes estimate   =    -303.31799077 Ry
     estimated scf accuracy    <       0.00000018 Ry

     iteration # 10     ecut=   100.00 Ry     beta=0.60
     Davidson diagonalization with overlap
     ethr =  4.45E-10,  avg # of iterations =  2.2

     total cpu time spent up to now is       25.8 secs

          k = 0.0819 0.0820 0.0820     band energies (ev):

   -46.0426 -22.2868 -22.2826 -22.2824 -14.0170  -6.3619  -5.6993  -5.6902
     0.7668   0.7670   0.8930   7.8848   8.0771   8.0783   8.9052   8.9090
     9.2741   9.8362  10.1512  10.1557  12.5522  12.6010  12.6110  14.8551

          k = 0.0819 0.0820 0.2459     band energies (ev):

   -46.0421 -22.3067 -22.2858 -22.2815 -13.9627  -6.4085  -5.6830  -5.6093
     0.8156   0.8204   1.0647   7.2144   7.8491   7.9423   8.4919   8.5070
     9.1945   9.2167   9.8453   9.8978  12.6279  13.2909  13.3016  14.8611

          k = 0.0819 0.0820 0.4099     band energies (ev):

   -46.0417 -22.3306 -22.2848 -22.2805 -13.9069  -6.5287  -5.6688  -5.4331
     0.8654   0.9664   1.1368   6.5220   7.6716   7.7487   7.9632   8.3005
     9.0271   9.1350   9.5079   9.6550  12.6671  13.9541  13.9638  14.8543

          k = 0.0819 0.2459 0.2459     band energies (ev):

   -46.0417 -22.3058 -22.3050 -22.2849 -13.9168  -6.3170  -5.6557  -5.6145
     0.7262   0.8314   1.1563   6.9302   7.4226   7.6962   8.0144   8.3113
     8.8039   9.4449   9.5358   9.9634  13.2674  13.3971  13.6359  15.3433

          k = 0.0819 0.2459 0.4099     band energies (ev):

   -46.0412 -22.3292 -22.3042 -22.2839 -13.8699  -6.3115  -5.6285  -5.5193
     0.7368   0.8821   1.0978   6.4457   7.1170   7.3027   7.7857   8.1466
     8.8876   9.2596   9.4301   9.9618  13.3643  13.9892  14.1202  15.4292

          k = 0.0819 0.4099 0.4099     band energies (ev):

   -46.0407 -22.3278 -22.3275 -22.2830 -13.8322  -6.0817  -5.6175  -5.5789
     0.6794   0.7293   1.0829   6.2731   6.6922   6.6926   7.8348   7.8904
     8.6266   9.4646   9.6006  10.3120  13.9983  14.0319  14.4146  15.5988

          k = 0.2458 0.2459 0.2459     band energies (ev):

   -46.0412 -22.3086 -22.3045 -22.3039 -13.8768  -6.1615  -5.6215  -5.6122
     0.5931   0.5954   1.2052   6.7362   7.3849   7.3930   7.9317   8.1383
     8.1429   9.7400   9.7529   9.7738  13.7068  13.7366  13.7401  16.5336

          k = 0.2458 0.2459 0.4099     band energies (ev):

   -46.0407 -22.3278 -22.3073 -22.3031 -13.8357  -6.0836  -5.5744  -5.5333
     0.4617   0.6013   0.9905   6.4138   7.1015   7.3642   7.4327   8.0879
     8.2833   9.5579   9.8676   9.8874  13.8131  14.1884  14.2213  16.5000

          k = 0.2458 0.4099 0.4099     band energies (ev):

   -46.0403 -22.3266 -22.3264 -22.3063 -13.8006  -5.8435  -5.5445  -5.5236
     0.3551   0.3818   0.6840   6.2614   6.6962   7.2822   7.4491   8.0503
     8.1181   9.7893   9.8784  10.2851  14.2858  14.2994  14.5108  16.8336

          k = 0.4096 0.4099 0.4099     band energies (ev):

   -46.0398 -22.3294 -22.3253 -22.3252 -13.7686  -5.5806  -5.4763  -5.4673
     0.0998   0.1029   0.2538   6.1090   6.6985   6.7023   7.8861   8.1306
     8.1323  10.2091  10.2166  10.2912  14.6133  14.6150  14.6197  17.6524

          k = 0.2458-0.0820 0.0820     band energies (ev):

   -46.0421 -22.3109 -22.2816 -22.2814 -13.9629  -6.4048  -5.6761  -5.6207
     0.8150   0.8209   1.0653   7.2104   7.8474   7.9412   8.4962   8.4993
     9.1942   9.2286   9.8706   9.8817  12.6102  13.3013  13.3075  14.8539

          k = 0.4096-0.0820 0.0820     band energies (ev):

   -46.0417 -22.3347 -22.2805 -22.2804 -13.9074  -6.5235  -5.6620  -5.4467
     0.8641   0.9661   1.1393   6.5142   7.6663   7.7479   7.9676   8.3028
     9.0205   9.1374   9.5412   9.6543  12.6493  13.9574  13.9664  14.8487

          k = 0.2458-0.2459 0.0820     band energies (ev):

   -46.0417 -22.3097 -22.3054 -22.2805 -13.9171  -6.3128  -5.6633  -5.6121
     0.7278   0.8310   1.1567   6.9297   7.4121   7.6981   8.0122   8.3061
     8.8303   9.4482   9.5294   9.9572  13.2724  13.3969  13.6380  15.3418

          k = 0.4096-0.2459 0.0820     band energies (ev):

   -46.0412 -22.3332 -22.3042 -22.2796 -13.8704  -6.3047  -5.6247  -5.5317
     0.7369   0.8848   1.0980   6.4405   7.0963   7.3184   7.7842   8.1417
     8.9107   9.2607   9.4398   9.9514  13.3623  13.9906  14.1205  15.4314

          k = 0.2458 0.4099 0.0820     band energies (ev):

   -46.0412 -22.3292 -22.3084 -22.2796 -13.8701  -6.3086  -5.6329  -5.5188
     0.7390   0.8822   1.0982   6.4461   7.1101   7.3013   7.7795   8.1496
     8.9004   9.2610   9.4344   9.9522  13.3719  13.9859  14.1224  15.4336

          k = 0.4096-0.4099 0.0820     band energies (ev):

   -46.0407 -22.3317 -22.3277 -22.2787 -13.8326  -6.0725  -5.6257  -5.5821
     0.6822   0.7320   1.0824   6.2726   6.6624   6.7143   7.8253   7.8896
     8.6332   9.4772   9.6145  10.2995  13.9983  14.0303  14.4148  15.6112

          k = 0.4096-0.2459 0.2459     band energies (ev):

   -46.0407 -22.3319 -22.3034 -22.3029 -13.8359  -6.0781  -5.5675  -5.5467
     0.4598   0.6049   0.9902   6.4099   7.0904   7.3715   7.4326   8.0905
     8.2901   9.5690   9.8682   9.8790  13.8105  14.1880  14.2208  16.5011

          k = 0.4096-0.4099 0.2459     band energies (ev):

   -46.0403 -22.3305 -22.3265 -22.3021 -13.8008  -5.8353  -5.5530  -5.5245
     0.3553   0.3846   0.6831   6.2607   6.6930   7.2795   7.4492   8.0497
     8.1201   9.7987   9.8898  10.2721  14.2833  14.2976  14.5113  16.8477

     highest occupied, lowest unoccupied level (ev):    10.3120   12.5522

!    total energy              =    -303.31799072 Ry
     Harris-Foulkes estimate   =    -303.31799075 Ry
     estimated scf accuracy    <       0.00000006 Ry

     The total energy is the sum of the following terms:

     one-electron contribution =     -69.94680437 Ry
     hartree contribution      =      59.19802089 Ry
     xc contribution           =     -84.18449874 Ry
     ewald contribution        =    -208.38359499 Ry
     scf correction            =      -0.00111352 Ry

     iteration # 11     ecut=   100.00 Ry     beta=0.60
     Davidson diagonalization with overlap
     ethr =  1.50E-10,  avg # of iterations =  3.1

     total cpu time spent up to now is       26.3 secs

     total energy              =    -303.31799074 Ry
     Harris-Foulkes estimate   =    -303.31799074 Ry
     estimated scf accuracy    <          4.6E-09 Ry

     iteration # 12     ecut=   100.00 Ry     beta=0.60
     Davidson diagonalization with overlap
     ethr =  1.16E-11,  avg # of iterations =  2.1

     total cpu time spent up to now is       26.7 secs

     total energy              =    -303.31799074 Ry
     Harris-Foulkes estimate   =    -303.31799074 Ry
     estimated scf accuracy    <          2.3E-09 Ry

     iteration # 13     ecut=   100.00 Ry     beta=0.60
     Davidson diagonalization with overlap
     ethr =  5.66E-12,  avg # of iterations =  2.9

     total cpu time spent up to now is       27.1 secs

     total energy              =    -303.31799074 Ry
     Harris-Foulkes estimate   =    -303.31799074 Ry
     estimated scf accuracy    <          1.9E-11 Ry

     iteration # 14     ecut=   100.00 Ry     beta=0.60
     Davidson diagonalization with overlap
     ethr =  1.00E-13,  avg # of iterations =  3.2

     total cpu time spent up to now is       27.6 secs

     total energy              =    -303.31799074 Ry
     Harris-Foulkes estimate   =    -303.31799074 Ry
     estimated scf accuracy    <          1.2E-11 Ry

     iteration # 15     ecut=   100.00 Ry     beta=0.60
     Davidson diagonalization with overlap
     ethr =  1.00E-13,  avg # of iterations =  2.0

     total cpu time spent up to now is       28.0 secs

     total energy              =    -303.31799074 Ry
     Harris-Foulkes estimate   =    -303.31799074 Ry
     estimated scf accuracy    <          7.6E-12 Ry

     iteration # 16     ecut=   100.00 Ry     beta=0.60
     Davidson diagonalization with overlap
     ethr =  1.00E-13,  avg # of iterations =  1.0

     total cpu time spent up to now is       28.3 secs

     total energy              =    -303.31799074 Ry
     Harris-Foulkes estimate   =    -303.31799074 Ry
     estimated scf accuracy    <          4.5E-12 Ry

     iteration # 17     ecut=   100.00 Ry     beta=0.60
     Davidson diagonalization with overlap
     ethr =  1.00E-13,  avg # of iterations =  1.0

     total cpu time spent up to now is       28.7 secs

     total energy              =    -303.31799074 Ry
     Harris-Foulkes estimate   =    -303.31799074 Ry
     estimated scf accuracy    <          1.2E-13 Ry

     iteration # 18     ecut=   100.00 Ry     beta=0.60
     Davidson diagonalization with overlap
     ethr =  1.00E-13,  avg # of iterations =  1.0

     total cpu time spent up to now is       29.0 secs

     End of self-consistent calculation

          k = 0.0819 0.0820 0.0820 (  6850 PWs)   bands (ev):

   -46.0435 -22.2877 -22.2834 -22.2832 -14.0169  -6.3619  -5.6993  -5.6902
     0.7669   0.7672   0.8932   7.8848   8.0771   8.0782   8.9052   8.9089
     9.2740   9.8361  10.1511  10.1557  12.5515  12.6004  12.6104  14.8544

          k = 0.0819 0.0820 0.2459 (  6839 PWs)   bands (ev):

   -46.0430 -22.3075 -22.2867 -22.2823 -13.9625  -6.4085  -5.6830  -5.6093
     0.8157   0.8206   1.0649   7.2143   7.8490   7.9422   8.4919   8.5070
     9.1945   9.2166   9.8452   9.8978  12.6273  13.2903  13.3010  14.8604

          k = 0.0819 0.0820 0.4099 (  6839 PWs)   bands (ev):

   -46.0426 -22.3315 -22.2857 -22.2813 -13.9068  -6.5287  -5.6688  -5.4332
     0.8655   0.9666   1.1369   6.5218   7.6715   7.7487   7.9631   8.3005
     9.0270   9.1350   9.5079   9.6549  12.6664  13.9535  13.9631  14.8536

          k = 0.0819 0.2459 0.2459 (  6847 PWs)   bands (ev):

   -46.0426 -22.3067 -22.3059 -22.2857 -13.9167  -6.3170  -5.6557  -5.6145
     0.7263   0.8316   1.1565   6.9301   7.4224   7.6961   8.0144   8.3112
     8.8038   9.4449   9.5357   9.9634  13.2668  13.3965  13.6353  15.3426

          k = 0.0819 0.2459 0.4099 (  6833 PWs)   bands (ev):

   -46.0421 -22.3300 -22.3050 -22.2848 -13.8698  -6.3115  -5.6285  -5.5193
     0.7369   0.8822   1.0979   6.4456   7.1169   7.3026   7.7857   8.1465
     8.8876   9.2596   9.4301   9.9618  13.3637  13.9886  14.1196  15.4285

          k = 0.0819 0.4099 0.4099 (  6854 PWs)   bands (ev):

   -46.0416 -22.3286 -22.3284 -22.2839 -13.8320  -6.0817  -5.6175  -5.5789
     0.6795   0.7295   1.0830   6.2730   6.6919   6.6925   7.8348   7.8903
     8.6266   9.4646   9.6007  10.3119  13.9976  14.0313  14.4139  15.5981

          k = 0.2458 0.2459 0.2459 (  6881 PWs)   bands (ev):

   -46.0421 -22.3094 -22.3054 -22.3048 -13.8766  -6.1615  -5.6215  -5.6123
     0.5932   0.5956   1.2053   6.7362   7.3848   7.3928   7.9317   8.1382
     8.1428   9.7400   9.7529   9.7738  13.7062  13.7360  13.7395  16.5330

          k = 0.2458 0.2459 0.4099 (  6839 PWs)   bands (ev):

   -46.0416 -22.3287 -22.3082 -22.3040 -13.8355  -6.0836  -5.5744  -5.5334
     0.4618   0.6015   0.9906   6.4136   7.1014   7.3641   7.4326   8.0879
     8.2832   9.5579   9.8676   9.8874  13.8125  14.1878  14.2207  16.4994

          k = 0.2458 0.4099 0.4099 (  6851 PWs)   bands (ev):

   -46.0412 -22.3274 -22.3273 -22.3072 -13.8005  -5.8434  -5.5445  -5.5237
     0.3553   0.3819   0.6842   6.2613   6.6960   7.2822   7.4490   8.0502
     8.1180   9.7893   9.8784  10.2851  14.2851  14.2988  14.5101  16.8330

          k = 0.4096 0.4099 0.4099 (  6854 PWs)   bands (ev):

   -46.0407 -22.3302 -22.3262 -22.3261 -13.7684  -5.5806  -5.4763  -5.4673
     0.0999   0.1031   0.2539   6.1090   6.6983   6.7021   7.8860   8.1306
     8.1322  10.2091  10.2165  10.2912  14.6127  14.6144  14.6191  17.6523

          k = 0.2458-0.0820 0.0820 (  6839 PWs)   bands (ev):

   -46.0431 -22.3118 -22.2824 -22.2823 -13.9628  -6.4049  -5.6762  -5.6206
     0.8151   0.8211   1.0654   7.2103   7.8473   7.9412   8.4962   8.4992
     9.1942   9.2286   9.8706   9.8817  12.6096  13.3007  13.3068  14.8532

          k = 0.4096-0.0820 0.0820 (  6839 PWs)   bands (ev):

   -46.0426 -22.3356 -22.2814 -22.2813 -13.9073  -6.5235  -5.6620  -5.4467
     0.8643   0.9662   1.1395   6.5140   7.6662   7.7479   7.9675   8.3028
     9.0205   9.1374   9.5412   9.6542  12.6487  13.9568  13.9658  14.8480

          k = 0.2458-0.2459 0.0820 (  6847 PWs)   bands (ev):

   -46.0426 -22.3105 -22.3062 -22.2814 -13.9169  -6.3128  -5.6633  -5.6121
     0.7279   0.8312   1.1569   6.9296   7.4119   7.6980   8.0122   8.3061
     8.8303   9.4482   9.5293   9.9572  13.2718  13.3962  13.6374  15.3411

          k = 0.4096-0.2459 0.0820 (  6833 PWs)   bands (ev):

   -46.0421 -22.3341 -22.3050 -22.2805 -13.8702  -6.3048  -5.6248  -5.5317
     0.7370   0.8850   1.0982   6.4404   7.0962   7.3183   7.7841   8.1417
     8.9106   9.2606   9.4398   9.9514  13.3616  13.9899  14.1198  15.4308

          k = 0.2458 0.4099 0.0820 (  6833 PWs)   bands (ev):

   -46.0421 -22.3300 -22.3092 -22.2805 -13.8700  -6.3087  -5.6329  -5.5188
     0.7391   0.8823   1.0984   6.4460   7.1101   7.3012   7.7795   8.1495
     8.9003   9.2609   9.4344   9.9522  13.3712  13.9853  14.1217  15.4330

          k = 0.4096-0.4099 0.0820 (  6854 PWs)   bands (ev):

   -46.0416 -22.3326 -22.3285 -22.2796 -13.8324  -6.0725  -5.6257  -5.5821
     0.6824   0.7321   1.0825   6.2725   6.6623   6.7142   7.8252   7.8895
     8.6331   9.4772   9.6145  10.2995  13.9977  14.0297  14.4141  15.6106

          k = 0.4096-0.2459 0.2459 (  6839 PWs)   bands (ev):

   -46.0417 -22.3328 -22.3043 -22.3037 -13.8358  -6.0782  -5.5675  -5.5466
     0.4599   0.6051   0.9903   6.4098   7.0903   7.3713   7.4325   8.0905
     8.2900   9.5690   9.8682   9.8790  13.8099  14.1874  14.2202  16.5005

          k = 0.4096-0.4099 0.2459 (  6851 PWs)   bands (ev):

   -46.0412 -22.3314 -22.3273 -22.3030 -13.8007  -5.8353  -5.5530  -5.5245
     0.3555   0.3847   0.6833   6.2606   6.6928   7.2794   7.4491   8.0496
     8.1200   9.7987   9.8897  10.2721  14.2827  14.2970  14.5107  16.8471

     highest occupied, lowest unoccupied level (ev):    10.3119   12.5515

!    total energy              =    -303.31799074 Ry
     Harris-Foulkes estimate   =    -303.31799074 Ry
     estimated scf accuracy    <          4.0E-14 Ry

     The total energy is the sum of the following terms:

     one-electron contribution =     -69.94809101 Ry
     hartree contribution      =      59.19822601 Ry
     xc contribution           =     -84.18453075 Ry
     ewald contribution        =    -208.38359499 Ry

     convergence has been achieved in  18 iterations

     Forces acting on atoms (cartesian axes, Ry/au):

     atom    1 type  3   force =     0.00362406    0.00000000    0.00000000
     atom    2 type  2   force =     0.00134381    0.00000000    0.00000000
     atom    3 type  1   force =    -0.00495408    0.00000000    0.00000000
     atom    4 type  1   force =    -0.00000690    0.00000000    0.00000000
     atom    5 type  1   force =    -0.00000690    0.00000000    0.00000000

     Total force =     0.006284     Total SCF correction =     0.000000


     Computing stress (Cartesian axis) and pressure

          total   stress  (Ry/bohr**3)                   (kbar)     P=    0.34
   0.00000724   0.00000000   0.00000000          1.06      0.00      0.00
   0.00000000  -0.00000014   0.00000000          0.00     -0.02      0.00
   0.00000000   0.00000000  -0.00000014          0.00      0.00     -0.02


     number of scf cycles    =   3
     number of bfgs steps    =   2

     enthalpy old            =    -303.3178960923 Ry
     enthalpy new            =    -303.3179907373 Ry

     CASE: enthalpy_new < enthalpy_old

     new trust radius        =       0.0113779536 bohr
     new conv_thr            =            1.0E-14 Ry

     new unit-cell volume =    427.00580 a.u.^3 (    63.27573 Ang^3 )
     density =      6.11932 g/cm^3

CELL_PARAMETERS (alat=  7.40000000)
   1.018280057   0.000000000   0.000000000
   0.000000000   1.017268712   0.000000000
   0.000000000   0.000000000   1.017268712

ATOMIC_POSITIONS (crystal)
Ba       0.002533953   0.000000000   0.000000000
Ti       0.509817098   0.500000000   0.500000000
O       -0.002728224   0.500000000   0.500000000
O        0.500188586   0.000000000   0.500000000
O        0.500188586   0.500000000   0.000000000



     Writing output data file bto.save
     NEW-OLD atomic charge density approx. for the potential
     extrapolated charge   40.08932, renormalised to   40.00000

     total cpu time spent up to now is       30.4 secs

     per-process dynamical memory:    71.3 Mb

     Self-consistent Calculation

     iteration #  1     ecut=   100.00 Ry     beta=0.60
     Davidson diagonalization with overlap
     ethr =  1.00E-06,  avg # of iterations =  3.6

     total cpu time spent up to now is       31.0 secs

     total energy              =    -303.31706117 Ry
     Harris-Foulkes estimate   =    -303.18351847 Ry
     estimated scf accuracy    <       0.00078350 Ry

     iteration #  2     ecut=   100.00 Ry     beta=0.60
     Davidson diagonalization with overlap
     ethr =  1.96E-06,  avg # of iterations =  4.2

     total cpu time spent up to now is       31.6 secs

     total energy              =    -303.31779416 Ry
     Harris-Foulkes estimate   =    -303.31886441 Ry
     estimated scf accuracy    <       0.00339325 Ry

     iteration #  3     ecut=   100.00 Ry     beta=0.60
     Davidson diagonalization with overlap
     ethr =  1.96E-06,  avg # of iterations =  3.2

     total cpu time spent up to now is       32.1 secs

     total energy              =    -303.31810052 Ry
     Harris-Foulkes estimate   =    -303.31818377 Ry
     estimated scf accuracy    <       0.00036301 Ry

     iteration #  4     ecut=   100.00 Ry     beta=0.60
     Davidson diagonalization with overlap
     ethr =  9.08E-07,  avg # of iterations =  1.6

     total cpu time spent up to now is       32.5 secs

     total energy              =    -303.31803234 Ry
     Harris-Foulkes estimate   =    -303.31811886 Ry
     estimated scf accuracy    <       0.00018968 Ry

     iteration #  5     ecut=   100.00 Ry     beta=0.60
     Davidson diagonalization with overlap
     ethr =  4.74E-07,  avg # of iterations =  2.1

     total cpu time spent up to now is       32.9 secs

     total energy              =    -303.31806059 Ry
     Harris-Foulkes estimate   =    -303.31806303 Ry
     estimated scf accuracy    <       0.00000964 Ry

     iteration #  6     ecut=   100.00 Ry     beta=0.60
     Davidson diagonalization with overlap
     ethr =  2.41E-08,  avg # of iterations =  2.9

     total cpu time spent up to now is       33.3 secs

     total energy              =    -303.31806219 Ry
     Harris-Foulkes estimate   =    -303.31806248 Ry
     estimated scf accuracy    <       0.00000065 Ry

     iteration #  7     ecut=   100.00 Ry     beta=0.60
     Davidson diagonalization with overlap
     ethr =  1.62E-09,  avg # of iterations =  3.1

     total cpu time spent up to now is       33.8 secs

     total energy              =    -303.31806239 Ry
     Harris-Foulkes estimate   =    -303.31806241 Ry
     estimated scf accuracy    <       0.00000007 Ry

     iteration #  8     ecut=   100.00 Ry     beta=0.60
     Davidson diagonalization with overlap
     ethr =  1.76E-10,  avg # of iterations =  2.5

     total cpu time spent up to now is       34.2 secs

     total energy              =    -303.31806240 Ry
     Harris-Foulkes estimate   =    -303.31806241 Ry
     estimated scf accuracy    <       0.00000001 Ry

     iteration #  9     ecut=   100.00 Ry     beta=0.60
     Davidson diagonalization with overlap
     ethr =  2.51E-11,  avg # of iterations =  2.9

     total cpu time spent up to now is       34.6 secs

     total energy              =    -303.31806241 Ry
     Harris-Foulkes estimate   =    -303.31806241 Ry
     estimated scf accuracy    <          4.2E-09 Ry

     iteration # 10     ecut=   100.00 Ry     beta=0.60
     Davidson diagonalization with overlap
     ethr =  1.04E-11,  avg # of iterations =  2.0

     total cpu time spent up to now is       35.0 secs

          k = 0.0818 0.0819 0.0819     band energies (ev):

   -46.0819 -22.3263 -22.3204 -22.3202 -14.0566  -6.3892  -5.7274  -5.7164
     0.7284   0.7285   0.8535   7.8530   8.0440   8.0465   8.8754   8.8793
     9.2450   9.7974  10.1150  10.1203  12.5181  12.5681  12.5796  14.8107

          k = 0.0818 0.0819 0.2458     band energies (ev):

   -46.0814 -22.3443 -22.3253 -22.3193 -14.0029  -6.4345  -5.7107  -5.6370
     0.7764   0.7814   1.0234   7.1857   7.8184   7.9115   8.4615   8.4781
     9.1647   9.1835   9.8082   9.8648  12.5957  13.2533  13.2649  14.8175

          k = 0.0818 0.0819 0.4096     band energies (ev):

   -46.0810 -22.3680 -22.3243 -22.3183 -13.9478  -6.5527  -5.6965  -5.4627
     0.8262   0.9260   1.0941   6.4957   7.6428   7.7203   7.9344   8.2701
     8.9992   9.1030   9.4691   9.6235  12.6345  13.9144  13.9242  14.8103

          k = 0.0818 0.2458 0.2458     band energies (ev):

   -46.0810 -22.3434 -22.3426 -22.3243 -13.9575  -6.3432  -5.6826  -5.6429
     0.6871   0.7922   1.1139   6.9025   7.3945   7.6686   7.9837   8.2818
     8.7669   9.4146   9.5052   9.9311  13.2293  13.3606  13.5977  15.2964

          k = 0.0818 0.2458 0.4096     band energies (ev):

   -46.0805 -22.3665 -22.3418 -22.3234 -13.9111  -6.3369  -5.6562  -5.5479
     0.6978   0.8415   1.0556   6.4194   7.0912   7.2753   7.7566   8.1158
     8.8503   9.2297   9.3999   9.9312  13.3267  13.9499  14.0800  15.3805

          k = 0.0818 0.4096 0.4096     band energies (ev):

   -46.0800 -22.3652 -22.3650 -22.3225 -13.8737  -6.1084  -5.6450  -5.6070
     0.6397   0.6896   1.0412   6.2462   6.6672   6.6677   7.8057   7.8620
     8.5927   9.4318   9.5670  10.2818  13.9585  13.9927  14.3735  15.5462

          k = 0.2455 0.2458 0.2458     band energies (ev):

   -46.0805 -22.3476 -22.3422 -22.3416 -13.9180  -6.1882  -5.6508  -5.6394
     0.5554   0.5586   1.1622   6.7097   7.3560   7.3656   7.9022   8.1080
     8.1121   9.7078   9.7195   9.7445  13.6660  13.6979  13.7022  16.4843

          k = 0.2455 0.2458 0.4096     band energies (ev):

   -46.0801 -22.3652 -22.3465 -22.3407 -13.8773  -6.1103  -5.6034  -5.5617
     0.4260   0.5632   0.9494   6.3872   7.0748   7.3346   7.4065   8.0554
     8.2506   9.5269   9.8347   9.8582  13.7733  14.1479  14.1803  16.4491

          k = 0.2455 0.4096 0.4096     band energies (ev):

   -46.0796 -22.3640 -22.3638 -22.3454 -13.8426  -5.8721  -5.5726  -5.5525
     0.3196   0.3451   0.6460   6.2340   6.6713   7.2535   7.4202   8.0180
     8.0848   9.7570   9.8456  10.2554  14.2445  14.2584  14.4690  16.7775

          k = 0.4092 0.4096 0.4096     band energies (ev):

   -46.0791 -22.3682 -22.3628 -22.3627 -13.8110  -5.6102  -5.5072  -5.4960
     0.0658   0.0702   0.2193   6.0822   6.6740   6.6774   7.8529   8.0962
     8.0978  10.1758  10.1855  10.2595  14.5698  14.5719  14.5773  17.5966

          k = 0.2455-0.0819 0.0819     band energies (ev):

   -46.0814 -22.3500 -22.3194 -22.3192 -14.0033  -6.4305  -5.7025  -5.6507
     0.7761   0.7820   1.0240   7.1811   7.8173   7.9119   8.4666   8.4690
     9.1656   9.1973   9.8360   9.8489  12.5748  13.2646  13.2706  14.8094

          k = 0.4092-0.0819 0.0819     band energies (ev):

   -46.0810 -22.3735 -22.3184 -22.3183 -13.9486  -6.5471  -5.6885  -5.4796
     0.8247   0.9257   1.0975   6.4885   7.6397   7.7213   7.9381   8.2725
     8.9921   9.1058   9.5098   9.6241  12.6137  13.9161  13.9253  14.8042

          k = 0.2455-0.2458 0.0819     band energies (ev):

[...]
     total energy              =    -303.31820925 Ry
     Harris-Foulkes estimate   =    -303.36236171 Ry
     estimated scf accuracy    <       0.16881501 Ry

     iteration #  4     ecut=   100.00 Ry     beta=0.60
     Davidson diagonalization with overlap
     ethr =  4.22E-04,  avg # of iterations =  1.3

     total cpu time spent up to now is      114.1 secs

     total energy              =    -303.30912057 Ry
     Harris-Foulkes estimate   =    -303.32693229 Ry
     estimated scf accuracy    <       0.05976462 Ry

     iteration #  5     ecut=   100.00 Ry     beta=0.60
     Davidson diagonalization with overlap
     ethr =  1.49E-04,  avg # of iterations =  3.0

     total cpu time spent up to now is      114.6 secs

     total energy              =    -303.31908134 Ry
     Harris-Foulkes estimate   =    -303.31983516 Ry
     estimated scf accuracy    <       0.00213973 Ry

     iteration #  6     ecut=   100.00 Ry     beta=0.60
     Davidson diagonalization with overlap
     ethr =  5.35E-06,  avg # of iterations =  3.7

     total cpu time spent up to now is      115.1 secs

     total energy              =    -303.31969256 Ry
     Harris-Foulkes estimate   =    -303.31980494 Ry
     estimated scf accuracy    <       0.00058262 Ry

     iteration #  7     ecut=   100.00 Ry     beta=0.60
     Davidson diagonalization with overlap
     ethr =  1.46E-06,  avg # of iterations =  1.7

     total cpu time spent up to now is      115.5 secs

     total energy              =    -303.31966008 Ry
     Harris-Foulkes estimate   =    -303.31973120 Ry
     estimated scf accuracy    <       0.00018995 Ry

     iteration #  8     ecut=   100.00 Ry     beta=0.60
     Davidson diagonalization with overlap
     ethr =  4.75E-07,  avg # of iterations =  2.7

     total cpu time spent up to now is      115.9 secs

     total energy              =    -303.31969867 Ry
     Harris-Foulkes estimate   =    -303.31969923 Ry
     estimated scf accuracy    <       0.00000415 Ry

     iteration #  9     ecut=   100.00 Ry     beta=0.60
     Davidson diagonalization with overlap
     ethr =  1.04E-08,  avg # of iterations =  3.2

     total cpu time spent up to now is      116.4 secs

     total energy              =    -303.31969933 Ry
     Harris-Foulkes estimate   =    -303.31970016 Ry
     estimated scf accuracy    <       0.00000195 Ry

     iteration # 10     ecut=   100.00 Ry     beta=0.60
     Davidson diagonalization with overlap
     ethr =  4.87E-09,  avg # of iterations =  2.7

     total cpu time spent up to now is      116.8 secs

          k = 0.0797 0.0824 0.0824     band energies (ev):

   -46.1305 -22.4601 -22.3681 -22.3679 -14.3282  -6.5650  -5.9558  -5.8550
     0.4593   0.4787   0.5922   7.6581   7.8098   7.8517   8.4819   8.5039
     8.9489   9.3095   9.7550   9.8227  12.4947  12.8228  12.8399  14.8903

          k = 0.0797 0.0824 0.2472     band energies (ev):

   -46.1300 -22.4590 -22.3934 -22.3670 -14.2742  -6.6066  -5.9229  -5.7892
     0.4950   0.5252   0.7442   7.0138   7.5898   7.7319   8.1327   8.2144
     8.7431   8.9017   9.4843   9.5693  12.8371  13.2081  13.2473  14.9236

          k = 0.0797 0.0824 0.4120     band energies (ev):

   -46.1295 -22.4579 -22.4186 -22.3659 -14.2187  -6.7207  -5.8964  -5.6268
     0.5501   0.6564   0.7876   6.3534   7.4483   7.5525   7.6912   8.0343
     8.6695   8.7496   9.1026   9.3014  12.8795  13.8399  13.8936  14.8817

          k = 0.0797 0.2472 0.2472     band energies (ev):

   -46.1295 -22.4579 -22.3925 -22.3917 -14.2282  -6.5242  -5.8483  -5.8207
     0.3928   0.5115   0.8201   6.7331   7.2079   7.4832   7.7763   8.0122
     8.2246   9.1494   9.3159   9.7969  13.1370  13.3706  13.5720  15.2258

          k = 0.0797 0.2472 0.4120     band energies (ev):

   -46.1290 -22.4569 -22.4171 -22.3908 -14.1813  -6.5177  -5.8333  -5.7038
     0.3983   0.5294   0.7496   6.2665   6.9140   7.1242   7.5305   7.8332
     8.3859   8.9958   9.2062   9.8171  13.2687  13.9148  14.0373  15.1855

          k = 0.0797 0.4120 0.4120     band energies (ev):

   -46.1285 -22.4559 -22.4156 -22.4155 -14.1430  -6.3111  -5.7832  -5.7628
     0.3044   0.3599   0.7278   6.0713   6.5025   6.5676   7.5342   7.5825
     8.3367   9.1920   9.3158  10.1890  13.8875  13.9766  14.3352  15.1067

          k = 0.2391 0.2472 0.2472     band energies (ev):

   -46.1292 -22.4750 -22.3916 -22.3909 -14.1981  -6.3762  -5.8932  -5.7848
     0.2730   0.3285   0.8678   6.5532   7.1062   7.1813   7.7554   7.8874
     7.9200   9.3930   9.4062   9.6490  13.5418  13.6252  13.6861  16.2531

          k = 0.2391 0.2472 0.4120     band energies (ev):

   -46.1287 -22.4737 -22.4160 -22.3901 -14.1560  -6.3172  -5.8196  -5.7138
     0.1826   0.2782   0.6689   6.2284   6.9059   7.1276   7.3141   7.8136
     7.9918   9.2567   9.5064   9.7517  13.6819  14.0618  14.1218  16.1980

          k = 0.2391 0.4120 0.4120     band energies (ev):

   -46.1282 -22.4725 -22.4147 -22.4146 -14.1198  -6.1178  -5.7281  -5.7225
     0.0497   0.0568   0.3926   6.0491   6.5732   7.0435   7.3089   7.7744
     7.8367   9.4545   9.5466  10.1646  14.1481  14.1767  14.4054  16.1899

          k = 0.3985 0.4120 0.4120     band energies (ev):

   -46.1279 -22.4891 -22.4138 -22.4137 -14.0963  -5.8938  -5.7139  -5.6587
    -0.1925  -0.1491   0.0248   5.9375   6.5794   6.6502   7.6225   7.8554
     7.8934   9.8266   9.8719  10.1383  14.4053  14.4082  14.4890  16.8700

          k = 0.2391-0.0824 0.0824     band energies (ev):

   -46.1302 -22.4775 -22.3674 -22.3672 -14.2860  -6.5968  -5.9188  -5.8440
     0.5115   0.5317   0.7467   6.9982   7.6020   7.7079   8.1571   8.2076
     8.8854   8.9859   9.5570   9.6766  12.5317  13.3212  13.3518  14.8841

          k = 0.3985-0.0824 0.0824     band energies (ev):

   -46.1299 -22.4949 -22.3666 -22.3665 -14.2430  -6.6914  -5.8328  -5.8051
     0.5445   0.6508   0.8490   6.3715   7.4158   7.5487   7.7856   8.0361
     8.7413   8.8638   9.3752   9.5491  12.5661  13.8159  13.8607  14.8815

          k = 0.2391-0.2472 0.0824     band energies (ev):

   -46.1297 -22.4762 -22.3924 -22.3663 -14.2393  -6.5107  -5.9439  -5.7932
     0.4361   0.5323   0.8292   6.7698   7.0762   7.5362   7.7982   8.0204
     8.6090   9.1032   9.3022   9.6318  13.2090  13.3962  13.5291  15.3571

          k = 0.3985-0.2472 0.0824     band energies (ev):

   -46.1294 -22.4933 -22.3915 -22.3656 -14.2039  -6.4781  -5.9011  -5.7877
     0.4246   0.6105   0.7847   6.3332   6.7674   7.2828   7.5871   7.8586
     8.7406   8.9986   9.2987   9.6022  13.2694  13.8599  13.9250  15.4320

          k = 0.2391 0.4120 0.0824     band energies (ev):

   -46.1292 -22.4748 -22.4174 -22.3653 -14.1915  -6.5205  -5.9015  -5.7008
     0.4579   0.5562   0.7852   6.2846   6.8651   7.1748   7.5364   7.9451
     8.5206   9.0163   9.1447   9.6049  13.3972  13.8775  14.0073  15.4326

          k = 0.3985-0.4120 0.0824     band energies (ev):

   -46.1289 -22.4917 -22.4163 -22.3647 -14.1639  -6.2726  -5.9571  -5.7655
     0.3789   0.4686   0.7718   6.1563   6.4308   6.6937   7.4914   7.7423
     8.4449   9.2127   9.3608   9.9207  13.8864  13.9229  14.2126  15.5832

          k = 0.3985-0.2472 0.2472     band energies (ev):

   -46.1289 -22.4919 -22.3907 -22.3902 -14.1675  -6.2593  -5.9011  -5.7479
     0.1540   0.3552   0.6867   6.3184   6.7585   7.1674   7.3675   7.8892
     8.0833   9.4716   9.5161   9.5559  13.6912  13.9716  14.0387  16.4308

          k = 0.3985-0.4120 0.2472     band energies (ev):

   -46.1284 -22.4904 -22.4150 -22.3893 -14.1304  -6.0600  -5.8681  -5.7120
     0.0571   0.1344   0.4109   6.1126   6.6166   7.0522   7.2573   7.8111
     7.9117   9.5064   9.7240   9.8863  14.0782  14.1676  14.3156  16.6486

     highest occupied, lowest unoccupied level (ev):    10.1890   12.4947

!    total energy              =    -303.31969966 Ry
     Harris-Foulkes estimate   =    -303.31969966 Ry
     estimated scf accuracy    <       0.00000001 Ry

     The total energy is the sum of the following terms:

     one-electron contribution =     -72.92327813 Ry
     hartree contribution      =      60.34880512 Ry
     xc contribution           =     -84.18218375 Ry
     ewald contribution        =    -206.56266123 Ry
     scf correction            =      -0.00038167 Ry

     iteration # 11     ecut=   100.00 Ry     beta=0.60
     Davidson diagonalization with overlap
     ethr =  2.58E-11,  avg # of iterations =  3.9

     total cpu time spent up to now is      117.5 secs

     total energy              =    -303.31969968 Ry
     Harris-Foulkes estimate   =    -303.31969968 Ry
     estimated scf accuracy    <          1.2E-09 Ry

     iteration # 12     ecut=   100.00 Ry     beta=0.60
     Davidson diagonalization with overlap
     ethr =  3.10E-12,  avg # of iterations =  2.2

     total cpu time spent up to now is      117.9 secs

     total energy              =    -303.31969968 Ry
     Harris-Foulkes estimate   =    -303.31969968 Ry
     estimated scf accuracy    <          1.7E-10 Ry

     iteration # 13     ecut=   100.00 Ry     beta=0.60
     Davidson diagonalization with overlap
     ethr =  4.16E-13,  avg # of iterations =  2.6

     total cpu time spent up to now is      118.4 secs

     total energy              =    -303.31969968 Ry
     Harris-Foulkes estimate   =    -303.31969968 Ry
     estimated scf accuracy    <          4.4E-12 Ry

     iteration # 14     ecut=   100.00 Ry     beta=0.60
     Davidson diagonalization with overlap
     ethr =  1.00E-13,  avg # of iterations =  1.1

     total cpu time spent up to now is      118.7 secs

     total energy              =    -303.31969968 Ry
     Harris-Foulkes estimate   =    -303.31969968 Ry
     estimated scf accuracy    <          1.4E-13 Ry

     iteration # 15     ecut=   100.00 Ry     beta=0.60
     Davidson diagonalization with overlap
     ethr =  1.00E-13,  avg # of iterations =  1.0

     total cpu time spent up to now is      119.1 secs

     total energy              =    -303.31969968 Ry
     Harris-Foulkes estimate   =    -303.31969968 Ry
     estimated scf accuracy    <          2.6E-14 Ry

     iteration # 16     ecut=   100.00 Ry     beta=0.60
     Davidson diagonalization with overlap
     ethr =  1.00E-13,  avg # of iterations =  1.0

     total cpu time spent up to now is      119.5 secs

     total energy              =    -303.31969968 Ry
     Harris-Foulkes estimate   =    -303.31969968 Ry
     estimated scf accuracy    <          2.6E-14 Ry

     iteration # 17     ecut=   100.00 Ry     beta=0.60
     Davidson diagonalization with overlap
     ethr =  1.00E-13,  avg # of iterations =  1.0

     total cpu time spent up to now is      119.8 secs

     End of self-consistent calculation

          k = 0.0797 0.0824 0.0824 (  7301 PWs)   bands (ev):

   -46.1304 -22.4600 -22.3680 -22.3678 -14.3281  -6.5651  -5.9559  -5.8551
     0.4593   0.4788   0.5923   7.6581   7.8098   7.8516   8.4818   8.5038
     8.9488   9.3094   9.7550   9.8226  12.4948  12.8228  12.8399  14.8903

          k = 0.0797 0.0824 0.2472 (  7306 PWs)   bands (ev):

   -46.1299 -22.4589 -22.3933 -22.3669 -14.2741  -6.6067  -5.9230  -5.7893
     0.4950   0.5252   0.7443   7.0138   7.5897   7.7318   8.1326   8.2143
     8.7430   8.9016   9.4842   9.5692  12.8372  13.2082  13.2473  14.9236

          k = 0.0797 0.0824 0.4120 (  7321 PWs)   bands (ev):

   -46.1294 -22.4578 -22.4185 -22.3659 -14.2187  -6.7207  -5.8965  -5.6269
     0.5502   0.6564   0.7877   6.3534   7.4482   7.5525   7.6911   8.0342
     8.6695   8.7495   9.1025   9.3013  12.8795  13.8400  13.8936  14.8817

          k = 0.0797 0.2472 0.2472 (  7324 PWs)   bands (ev):

   -46.1294 -22.4579 -22.3924 -22.3916 -14.2282  -6.5243  -5.8484  -5.8208
     0.3929   0.5115   0.8202   6.7331   7.2078   7.4832   7.7763   8.0121
     8.2245   9.1493   9.3158   9.7968  13.1370  13.3706  13.5720  15.2258

          k = 0.0797 0.2472 0.4120 (  7337 PWs)   bands (ev):

   -46.1289 -22.4568 -22.4170 -22.3907 -14.1812  -6.5178  -5.8334  -5.7039
     0.3983   0.5295   0.7496   6.2665   6.9140   7.1241   7.5304   7.8332
     8.3858   8.9957   9.2061   9.8169  13.2687  13.9148  14.0374  15.1855

          k = 0.0797 0.4120 0.4120 (  7324 PWs)   bands (ev):

   -46.1284 -22.4558 -22.4156 -22.4154 -14.1430  -6.3111  -5.7833  -5.7629
     0.3045   0.3599   0.7279   6.0713   6.5024   6.5675   7.5341   7.5824
     8.3367   9.1919   9.3157  10.1889  13.8876  13.9766  14.3353  15.1068

          k = 0.2391 0.2472 0.2472 (  7330 PWs)   bands (ev):

   -46.1291 -22.4749 -22.3915 -22.3909 -14.1980  -6.3763  -5.8933  -5.7849
     0.2731   0.3285   0.8679   6.5531   7.1062   7.1813   7.7553   7.8874
     7.9200   9.3928   9.4061   9.6489  13.5418  13.6252  13.6861  16.2531

          k = 0.2391 0.2472 0.4120 (  7328 PWs)   bands (ev):

   -46.1286 -22.4736 -22.4160 -22.3900 -14.1559  -6.3173  -5.8197  -5.7139
     0.1827   0.2783   0.6690   6.2284   6.9058   7.1275   7.3140   7.8136
     7.9917   9.2566   9.5063   9.7516  13.6820  14.0619  14.1218  16.1980

          k = 0.2391 0.4120 0.4120 (  7332 PWs)   bands (ev):

   -46.1281 -22.4725 -22.4147 -22.4145 -14.1197  -6.1178  -5.7282  -5.7226
     0.0498   0.0569   0.3927   6.0491   6.5732   7.0434   7.3089   7.7743
     7.8366   9.4544   9.5465  10.1645  14.1481  14.1767  14.4054  16.1900

          k = 0.3985 0.4120 0.4120 (  7317 PWs)   bands (ev):

   -46.1278 -22.4890 -22.4138 -22.4136 -14.0962  -5.8939  -5.7140  -5.6588
    -0.1924  -0.1490   0.0249   5.9375   6.5793   6.6502   7.6224   7.8553
     7.8934   9.8265   9.8718  10.1381  14.4053  14.4083  14.4890  16.8700

          k = 0.2391-0.0824 0.0824 (  7302 PWs)   bands (ev):

   -46.1301 -22.4775 -22.3673 -22.3671 -14.2859  -6.5969  -5.9189  -5.8441
     0.5115   0.5318   0.7467   6.9982   7.6019   7.7078   8.1570   8.2075
     8.8853   8.9858   9.5569   9.6766  12.5317  13.3212  13.3518  14.8842

          k = 0.3985-0.0824 0.0824 (  7306 PWs)   bands (ev):

   -46.1298 -22.4948 -22.3666 -22.3664 -14.2429  -6.6915  -5.8329  -5.8052
     0.5446   0.6509   0.8491   6.3714   7.4157   7.5486   7.7855   8.0360
     8.7412   8.8637   9.3751   9.5490  12.5662  13.8159  13.8608  14.8815

          k = 0.2391-0.2472 0.0824 (  7308 PWs)   bands (ev):

   -46.1296 -22.4761 -22.3924 -22.3662 -14.2392  -6.5108  -5.9440  -5.7933
     0.4362   0.5324   0.8292   6.7697   7.0761   7.5362   7.7981   8.0203
     8.6089   9.1031   9.3021   9.6317  13.2091  13.3962  13.5291  15.3571

          k = 0.3985-0.2472 0.0824 (  7313 PWs)   bands (ev):

   -46.1293 -22.4932 -22.3914 -22.3656 -14.2038  -6.4782  -5.9012  -5.7878
     0.4246   0.6106   0.7848   6.3332   6.7674   7.2827   7.5870   7.8585
     8.7405   8.9985   9.2986   9.6020  13.2694  13.8599  13.9250  15.4320

          k = 0.2391 0.4120 0.0824 (  7321 PWs)   bands (ev):

   -46.1291 -22.4747 -22.4173 -22.3652 -14.1914  -6.5206  -5.9016  -5.7009
     0.4579   0.5563   0.7853   6.2845   6.8651   7.1747   7.5363   7.9450
     8.5205   9.0162   9.1446   9.6048  13.3972  13.8775  14.0073  15.4326

          k = 0.3985-0.4120 0.0824 (  7312 PWs)   bands (ev):

   -46.1288 -22.4916 -22.4162 -22.3646 -14.1638  -6.2727  -5.9572  -5.7656
     0.3790   0.4687   0.7719   6.1562   6.4307   6.6936   7.4913   7.7422
     8.4448   9.2126   9.3607   9.9206  13.8864  13.9229  14.2126  15.5832

          k = 0.3985-0.2472 0.2472 (  7317 PWs)   bands (ev):

   -46.1288 -22.4918 -22.3906 -22.3901 -14.1674  -6.2594  -5.9012  -5.7480
     0.1540   0.3553   0.6867   6.3183   6.7584   7.1674   7.3675   7.8891
     8.0832   9.4715   9.5159   9.5558  13.6912  13.9716  14.0387  16.4308

          k = 0.3985-0.4120 0.2472 (  7320 PWs)   bands (ev):

   -46.1283 -22.4903 -22.4149 -22.3893 -14.1303  -6.0601  -5.8682  -5.7121
     0.0572   0.1344   0.4110   6.1126   6.6165   7.0522   7.2572   7.8111
     7.9116   9.5063   9.7239   9.8862  14.0782  14.1676  14.3156  16.6486

     highest occupied, lowest unoccupied level (ev):    10.1889   12.4948

!    total energy              =    -303.31969968 Ry
     Harris-Foulkes estimate   =    -303.31969968 Ry
     estimated scf accuracy    <          4.5E-15 Ry

     The total energy is the sum of the following terms:

     one-electron contribution =     -72.92376864 Ry
     hartree contribution      =      60.34891155 Ry
     xc contribution           =     -84.18218135 Ry
     ewald contribution        =    -206.56266123 Ry

     convergence has been achieved in  17 iterations

     Forces acting on atoms (cartesian axes, Ry/au):

     atom    1 type  3   force =    -0.00030583    0.00000000    0.00000000
     atom    2 type  2   force =     0.00035894    0.00000000    0.00000000
     atom    3 type  1   force =    -0.00004638    0.00000000    0.00000000
     atom    4 type  1   force =    -0.00000336    0.00000000    0.00000000
     atom    5 type  1   force =    -0.00000336    0.00000000    0.00000000

     Total force =     0.000474     Total SCF correction =     0.000000


     Computing stress (Cartesian axis) and pressure

          total   stress  (Ry/bohr**3)                   (kbar)     P=   -0.34
  -0.00000381   0.00000000   0.00000000         -0.56      0.00      0.00
   0.00000000  -0.00000161   0.00000000          0.00     -0.24      0.00
   0.00000000   0.00000000  -0.00000161          0.00      0.00     -0.24


     Writing output data file bto.save
 
     init_run     :      1.12s CPU      1.38s WALL (       2 calls)
     electrons    :     96.85s CPU     99.26s WALL (      15 calls)
     update_pot   :      5.60s CPU      6.17s WALL (      13 calls)
     forces       :      3.57s CPU      3.60s WALL (      15 calls)
     stress       :      7.84s CPU      7.86s WALL (      15 calls)

     Called by init_run:
     wfcinit      :      0.27s CPU      0.29s WALL (       2 calls)
     potinit      :      0.21s CPU      0.25s WALL (       2 calls)

     Called by electrons:
     c_bands      :     67.80s CPU     69.25s WALL (     220 calls)
     sum_band     :     18.90s CPU     19.22s WALL (     220 calls)
     v_of_rho     :      1.78s CPU      1.79s WALL (     234 calls)
     newd         :      8.18s CPU      8.25s WALL (     234 calls)
     mix_rho      :      0.30s CPU      0.31s WALL (     220 calls)

     Called by c_bands:
     init_us_2    :      0.95s CPU      0.97s WALL (    8496 calls)
     cegterg      :     63.43s CPU     64.76s WALL (    3960 calls)

     Called by sum_band:
     sum_band:bec :      0.02s CPU      0.06s WALL (    3960 calls)
     addusdens    :      9.52s CPU      9.56s WALL (     220 calls)

     Called by *egterg:
     h_psi        :     39.28s CPU     40.42s WALL (   14461 calls)
     s_psi        :      1.27s CPU      1.20s WALL (   14461 calls)
     g_psi        :      0.18s CPU      0.23s WALL (   10465 calls)
     cdiaghg      :     13.77s CPU     13.80s WALL (   14173 calls)

     Called by h_psi:
     h_psi:pot    :     39.21s CPU     40.22s WALL (   14461 calls)
     h_psi:calbec :      2.30s CPU      2.26s WALL (   14461 calls)
     vloc_psi     :     35.69s CPU     36.65s WALL (   14461 calls)
     add_vuspsi   :      1.21s CPU      1.27s WALL (   14461 calls)

     General routines
     calbec       :      3.30s CPU      3.23s WALL (   19771 calls)
     fft          :      2.04s CPU      2.10s WALL (    4076 calls)
     ffts         :      0.06s CPU      0.06s WALL (     454 calls)
     fftw         :     38.83s CPU     38.61s WALL (  588800 calls)
     interpolate  :      0.24s CPU      0.26s WALL (     454 calls)
     davcio       :      0.00s CPU      0.05s WALL (      36 calls)
 
     Parallel routines
     fft_scatter  :     23.29s CPU     21.67s WALL (  593330 calls)
 
     PWSCF        :  1m56.44s CPU     2m 0.57s WALL

 
   This run was terminated on:  11:15:37   5Jan2018            

=------------------------------------------------------------------------------=
   JOB DONE.
=------------------------------------------------------------------------------=
