
     Program PWSCF v.6.1 (svn rev. 13369) starts on  5Jan2018 at 12:46:51 

     This program is part of the open-source Quantum ESPRESSO suite
     for quantum simulation of materials; please cite
         "P. Giannozzi et al., J. Phys.:Condens. Matter 21 395502 (2009);
          URL http://www.quantum-espresso.org", 
     in publications or presentations arising from this work. More details at
     http://www.quantum-espresso.org/quote

     Parallel version (MPI), running on    28 processors
     R & G space division:  proc/nbgrp/npool/nimage =      28
     Waiting for input...
     Reading input from standard input

     Current dimensions of program PWSCF are:
     Max number of different atomic species (ntypx) = 10
     Max number of k-points (npk) =  40000
     Max angular momentum in pseudopotentials (lmaxx) =  3
               file O.pbe-rrkjus.UPF: wavefunction(s)  2S renormalized

     Subspace diagonalization in iterative solution of the eigenvalue problem:
     a serial algorithm will be used

 
     Parallelization info
     --------------------
     sticks:   dense  smooth     PW     G-vecs:    dense   smooth      PW
     Min         125      62     17                 5539     1956     291
     Max         126      63     18                 5541     1961     296
     Sum        3505    1749    489               155139    54795    8217
 

     Title: 
     cubic BaTiO3 at 7.40 lattice parameter. xc=PBE                             


     bravais-lattice index     =            1
     lattice parameter (alat)  =       7.4000  a.u.
     unit-cell volume          =     405.2240 (a.u.)^3
     number of atoms/cell      =            5
     number of atomic types    =            3
     number of electrons       =        40.00
     number of Kohn-Sham states=           24
     kinetic-energy cutoff     =     100.0000  Ry
     charge density cutoff     =     800.0000  Ry
     convergence threshold     =      1.0E-12
     mixing beta               =       0.6000
     number of iterations used =            8  plain     mixing
     Exchange-correlation      =  SLA  PW   PBE  PBE ( 1  4  3  4 0 0)
     nstep                     =           50


     celldm(1)=   7.400000  celldm(2)=   0.000000  celldm(3)=   0.000000
     celldm(4)=   0.000000  celldm(5)=   0.000000  celldm(6)=   0.000000

     crystal axes: (cart. coord. in units of alat)
               a(1) = (   1.000000   0.000000   0.000000 )  
               a(2) = (   0.000000   1.000000   0.000000 )  
               a(3) = (   0.000000   0.000000   1.000000 )  

     reciprocal axes: (cart. coord. in units 2 pi/alat)
               b(1) = (  1.000000  0.000000  0.000000 )  
               b(2) = (  0.000000  1.000000  0.000000 )  
               b(3) = (  0.000000  0.000000  1.000000 )  


     PseudoPot. # 1 for O  read from file:
     ../../PSP_DIR/O.pbe-rrkjus.UPF
     MD5 check sum: 390ba29e75625707450f3bd3f0eb6be9
     Pseudo is Ultrasoft, Zval =  6.0
     Generated by new atomic code, or converted to UPF format
     Using radial grid of 1269 points,  4 beta functions with: 
                l(1) =   0
                l(2) =   0
                l(3) =   1
                l(4) =   1
     Q(r) pseudized with 0 coefficients 


     PseudoPot. # 2 for Ti read from file:
     ../../PSP_DIR/Ti.pbe-sp-van_ak.UPF
     MD5 check sum: 8e4df49b7f0d34bbd5052bf3f5ea0213
     Pseudo is Ultrasoft, Zval = 12.0
     Generated by new atomic code, or converted to UPF format
     Using radial grid of  851 points,  6 beta functions with: 
                l(1) =   0
                l(2) =   0
                l(3) =   1
                l(4) =   1
                l(5) =   2
                l(6) =   2
     Q(r) pseudized with  8 coefficients,  rinner =    1.000   1.000   1.000
                                                       1.000   1.000

     PseudoPot. # 3 for Ba read from file:
     ../../PSP_DIR/Ba.pbe-nsp-van.UPF
     MD5 check sum: a011de417d3466d8e94df216395bc359
     Pseudo is Ultrasoft + core correction, Zval = 10.0
     Generated by new atomic code, or converted to UPF format
     Using radial grid of  907 points,  6 beta functions with: 
                l(1) =   0
                l(2) =   0
                l(3) =   1
                l(4) =   1
                l(5) =   2
                l(6) =   2
     Q(r) pseudized with  6 coefficients,  rinner =    1.200   1.200   1.200
                                                       1.200   1.200

     atomic species   valence    mass     pseudopotential
        O              6.00    15.99000     O ( 1.00)
        Ti            12.00    47.88000     Ti( 1.00)
        Ba            10.00   137.33000     Ba( 1.00)

      8 Sym. Ops. (no inversion) found



   Cartesian axes

     site n.     atom                  positions (alat units)
         1           Ba  tau(   1) = (   0.0000000   0.0000000   0.0000000  )
         2           Ti  tau(   2) = (   0.5300000   0.5000000   0.5000000  )
         3           O   tau(   3) = (   0.0000000   0.5000000   0.5000000  )
         4           O   tau(   4) = (   0.5000000   0.0000000   0.5000000  )
         5           O   tau(   5) = (   0.5000000   0.5000000   0.0000000  )

     number of k points=    18
                       cart. coord. in units 2pi/alat
        k(    1) = (   0.0833333   0.0833333   0.0833333), wk =   0.0740741
        k(    2) = (   0.0833333   0.0833333   0.2500000), wk =   0.1481481
        k(    3) = (   0.0833333   0.0833333   0.4166667), wk =   0.1481481
        k(    4) = (   0.0833333   0.2500000   0.2500000), wk =   0.0740741
        k(    5) = (   0.0833333   0.2500000   0.4166667), wk =   0.1481481
        k(    6) = (   0.0833333   0.4166667   0.4166667), wk =   0.0740741
        k(    7) = (   0.2500000   0.2500000   0.2500000), wk =   0.0740741
        k(    8) = (   0.2500000   0.2500000   0.4166667), wk =   0.1481481
        k(    9) = (   0.2500000   0.4166667   0.4166667), wk =   0.0740741
        k(   10) = (   0.4166667   0.4166667   0.4166667), wk =   0.0740741
        k(   11) = (   0.2500000  -0.0833333   0.0833333), wk =   0.0740741
        k(   12) = (   0.4166667  -0.0833333   0.0833333), wk =   0.0740741
        k(   13) = (   0.2500000  -0.2500000   0.0833333), wk =   0.1481481
        k(   14) = (   0.4166667  -0.2500000   0.0833333), wk =   0.1481481
        k(   15) = (   0.2500000   0.4166667   0.0833333), wk =   0.1481481
        k(   16) = (   0.4166667  -0.4166667   0.0833333), wk =   0.1481481
        k(   17) = (   0.4166667  -0.2500000   0.2500000), wk =   0.0740741
        k(   18) = (   0.4166667  -0.4166667   0.2500000), wk =   0.1481481

     Dense  grid:   155139 G-vectors     FFT dimensions: (  72,  72,  72)

     Smooth grid:    54795 G-vectors     FFT dimensions: (  48,  48,  48)

     Estimated max dynamical RAM per process >       6.37MB

     Estimated total allocated dynamical RAM >     178.31MB

     Initial potential from superposition of free atoms

     starting charge   38.98495, renormalised to   40.00000
     Starting wfc are   35 randomized atomic wfcs

     total cpu time spent up to now is        1.9 secs

     per-process dynamical memory:    58.4 Mb

     Self-consistent Calculation

     iteration #  1     ecut=   100.00 Ry     beta=0.60
     Davidson diagonalization with overlap
     ethr =  1.00E-02,  avg # of iterations =  2.6

     total cpu time spent up to now is        2.3 secs

     total energy              =    -302.91674824 Ry
     Harris-Foulkes estimate   =    -303.47272676 Ry
     estimated scf accuracy    <       0.77878201 Ry

     iteration #  2     ecut=   100.00 Ry     beta=0.60
     Davidson diagonalization with overlap
     ethr =  1.95E-03,  avg # of iterations =  4.0

     total cpu time spent up to now is        3.0 secs

     total energy              =    -302.45364862 Ry
     Harris-Foulkes estimate   =    -303.79818011 Ry
     estimated scf accuracy    <       4.90591004 Ry

     iteration #  3     ecut=   100.00 Ry     beta=0.60
     Davidson diagonalization with overlap
     ethr =  1.95E-03,  avg # of iterations =  3.2

     total cpu time spent up to now is        3.5 secs

     total energy              =    -303.30797170 Ry
     Harris-Foulkes estimate   =    -303.35039390 Ry
     estimated scf accuracy    <       0.15452794 Ry

     iteration #  4     ecut=   100.00 Ry     beta=0.60
     Davidson diagonalization with overlap
     ethr =  3.86E-04,  avg # of iterations =  1.4

     total cpu time spent up to now is        3.8 secs

     total energy              =    -303.29837874 Ry
     Harris-Foulkes estimate   =    -303.31647481 Ry
     estimated scf accuracy    <       0.05251765 Ry

     iteration #  5     ecut=   100.00 Ry     beta=0.60
     Davidson diagonalization with overlap
     ethr =  1.31E-04,  avg # of iterations =  3.1

     total cpu time spent up to now is        4.3 secs

     total energy              =    -303.30983947 Ry
     Harris-Foulkes estimate   =    -303.30997689 Ry
     estimated scf accuracy    <       0.00084414 Ry

     iteration #  6     ecut=   100.00 Ry     beta=0.60
     Davidson diagonalization with overlap
     ethr =  2.11E-06,  avg # of iterations =  3.8

     total cpu time spent up to now is        4.8 secs

     total energy              =    -303.30998032 Ry
     Harris-Foulkes estimate   =    -303.31014817 Ry
     estimated scf accuracy    <       0.00071916 Ry

     iteration #  7     ecut=   100.00 Ry     beta=0.60
     Davidson diagonalization with overlap
     ethr =  1.80E-06,  avg # of iterations =  1.4

     total cpu time spent up to now is        5.1 secs

     total energy              =    -303.30993694 Ry
     Harris-Foulkes estimate   =    -303.31002454 Ry
     estimated scf accuracy    <       0.00019995 Ry

     iteration #  8     ecut=   100.00 Ry     beta=0.60
     Davidson diagonalization with overlap
     ethr =  5.00E-07,  avg # of iterations =  3.0

     total cpu time spent up to now is        5.6 secs

     total energy              =    -303.30998902 Ry
     Harris-Foulkes estimate   =    -303.30999555 Ry
     estimated scf accuracy    <       0.00001839 Ry

     iteration #  9     ecut=   100.00 Ry     beta=0.60
     Davidson diagonalization with overlap
     ethr =  4.60E-08,  avg # of iterations =  2.7

     total cpu time spent up to now is        6.0 secs

     total energy              =    -303.30999167 Ry
     Harris-Foulkes estimate   =    -303.30999189 Ry
     estimated scf accuracy    <       0.00000047 Ry

     iteration # 10     ecut=   100.00 Ry     beta=0.60
     Davidson diagonalization with overlap
     ethr =  1.17E-09,  avg # of iterations =  3.4

     total cpu time spent up to now is        6.5 secs

          k = 0.0833 0.0833 0.0833     band energies (ev):

   -45.0174 -21.3412 -21.2945 -21.2942 -13.1697  -5.7394  -5.1210  -5.0406
     1.5873   1.5986   1.7449   8.6242   8.8191   8.8288   9.4313   9.4789
     9.8605  10.4832  10.8664  10.8888  13.4657  13.6407  13.6651  16.0520

          k = 0.0833 0.0833 0.2500     band energies (ev):

   -45.0168 -21.3399 -21.3255 -21.2930 -13.0986  -5.8371  -5.0866  -4.9341
     1.6491   1.6643   1.9547   7.8933   8.5335   8.6441   9.0725   9.1324
     9.7972   9.8494  10.5097  10.6478  13.6870  14.2406  14.2890  16.1366

          k = 0.0833 0.0833 0.4167     band energies (ev):

   -45.0161 -21.3564 -21.3384 -21.2917 -13.0251  -6.0074  -5.0696  -4.7133
     1.7109   1.8388   2.0482   7.1694   8.3026   8.4034   8.5762   8.9207
     9.6699   9.7975  10.0893  10.3694  13.7317  14.9579  15.0034  16.1243

          k = 0.0833 0.2500 0.2500     band energies (ev):

   -45.0161 -21.3386 -21.3243 -21.3231 -13.0396  -5.7622  -4.9940  -4.9847
     1.5481   1.6753   2.0701   7.5738   8.0907   8.3354   8.7339   8.9558
     9.3151  10.0263  10.2998  10.7180  14.2370  14.4058  14.6096  16.6313

          k = 0.0833 0.2500 0.4167     band energies (ev):

   -45.0155 -21.3542 -21.3373 -21.3220 -12.9789  -5.7823  -4.9997  -4.8242
     1.5585   1.7391   2.0046   7.0837   7.7335   7.9622   8.4559   8.7966
     9.4627   9.9049  10.0872  10.7092  14.3561  15.0308  15.1351  16.6851

          k = 0.0833 0.4167 0.4167     band energies (ev):

   -45.0149 -21.3523 -21.3519 -21.3361 -12.9316  -5.5563  -4.9428  -4.9113
     1.5001   1.5564   1.9869   6.9113   7.2922   7.3410   8.4786   8.5147
     9.3459  10.0869  10.2224  11.0645  15.0382  15.0892  15.4470  16.7951

          k = 0.2500 0.2500 0.2500     band energies (ev):

   -45.0155 -21.3694 -21.3227 -21.3216 -12.9886  -5.5624  -5.0175  -4.9431
     1.3820   1.3964   2.1356   7.3459   7.9636   8.0406   8.6314   8.7896
     8.8323  10.3350  10.4626  10.5154  14.6929  14.7561  14.7770  17.7797

          k = 0.2500 0.2500 0.4167     band energies (ev):

   -45.0149 -21.3678 -21.3523 -21.3206 -12.9361  -5.5104  -4.9465  -4.8407
     1.2297   1.3986   1.8749   7.0557   7.7149   7.9737   8.1294   8.7969
     8.9512  10.1934  10.5127  10.6184  14.8528  15.2090  15.2803  17.7731

          k = 0.2500 0.4167 0.4167     band energies (ev):

   -45.0142 -21.3664 -21.3505 -21.3503 -12.8921  -5.2753  -4.8570  -4.8517
     1.1054   1.1377   1.5045   6.9082   7.3461   7.9472   8.1310   8.7579
     8.8386  10.4096  10.4967  11.0304  15.3519  15.3678  15.5552  17.9989

          k = 0.4167 0.4167 0.4167     band energies (ev):

   -45.0136 -21.3963 -21.3488 -21.3486 -12.8519  -4.9502  -4.8148  -4.7654
     0.7991   0.8150   0.9893   6.7491   7.2917   7.3535   8.6166   8.8790
     8.9205  10.8763  10.8965  11.0041  15.6713  15.6945  15.7051  18.4999

          k = 0.2500-0.0833 0.0833     band energies (ev):

   -45.0168 -21.3727 -21.2931 -21.2929 -13.0990  -5.7896  -5.0401  -5.0244
     1.6419   1.6613   1.9637   7.8493   8.5035   8.6006   9.0668   9.1174
     9.7720   9.9574  10.5999  10.6177  13.5106  14.3582  14.3812  16.0504

          k = 0.4167-0.0833 0.0833     band energies (ev):

   -45.0161 -21.4039 -21.2918 -21.2915 -13.0258  -5.9483  -5.0081  -4.8253
     1.6976   1.8285   2.0700   7.0544   8.2254   8.3546   8.6356   8.9428
     9.5850   9.8355  10.2886  10.4057  13.5549  15.0428  15.0737  16.0485

          k = 0.2500-0.2500 0.0833     band energies (ev):

   -45.0161 -21.3710 -21.3237 -21.2918 -13.0399  -5.7110  -5.0717  -4.9527
     1.5562   1.6661   2.0721   7.5612   7.9853   8.3428   8.6795   8.8919
     9.5296  10.0700  10.2419  10.6897  14.2567  14.4397  14.6559  16.5838

          k = 0.4167-0.2500 0.0833     band energies (ev):

   -45.0155 -21.4018 -21.3220 -21.2905 -12.9794  -5.7064  -4.9702  -4.9178
     1.5529   1.7539   1.9981   6.9956   7.5659   8.0600   8.3867   8.7422
     9.6502   9.9366  10.1624  10.6385  14.3263  15.0882  15.1833  16.6643

          k = 0.2500 0.4167 0.0833     band energies (ev):

   -45.0155 -21.3692 -21.3542 -21.2905 -12.9790  -5.7468  -5.0316  -4.8208
     1.5731   1.7333   1.9995   7.0863   7.6572   7.9477   8.3409   8.8083
     9.5685   9.9413  10.1285  10.6539  14.4477  14.9987  15.1703  16.6976

          k = 0.4167-0.4167 0.0833     band energies (ev):

   -45.0149 -21.3996 -21.3521 -21.2893 -12.9318  -5.4577  -5.0253  -4.9125
     1.5059   1.5713   1.9721   6.8835   7.1589   7.3571   8.3005   8.5120
     9.3883  10.2311  10.3806  10.9794  15.0309  15.1273  15.4821  16.8627

          k = 0.4167-0.2500 0.2500     band energies (ev):

   -45.0149 -21.3999 -21.3210 -21.3202 -12.9363  -5.4541  -4.9468  -4.8904
     1.2168   1.4195   1.8677   6.9826   7.6008   8.0125   8.1521   8.8190
     9.0126  10.2685  10.5030  10.5763  14.8092  15.2371  15.3073  17.7398

          k = 0.4167-0.4167 0.2500     band energies (ev):

   -45.0142 -21.3980 -21.3504 -21.3192 -12.8923  -5.1964  -4.9401  -4.8395
     1.1021   1.1517   1.4946   6.8792   7.2981   7.9022   8.1246   8.7359
     8.8560  10.4959  10.6187  10.9382  15.3251  15.3689  15.5878  18.0820

     highest occupied, lowest unoccupied level (ev):    11.0645   13.4657

!    total energy              =    -303.30999195 Ry
     Harris-Foulkes estimate   =    -303.30999195 Ry
     estimated scf accuracy    <       0.00000002 Ry

     The total energy is the sum of the following terms:

     one-electron contribution =     -65.31800084 Ry
     hartree contribution      =      58.11872077 Ry
     xc contribution           =     -84.36953830 Ry
     ewald contribution        =    -211.74186573 Ry
     scf correction            =       0.00069215 Ry

     iteration # 11     ecut=   100.00 Ry     beta=0.60
     Davidson diagonalization with overlap
     ethr =  3.85E-11,  avg # of iterations =  2.4

     total cpu time spent up to now is        6.9 secs

     total energy              =    -303.30999195 Ry
     Harris-Foulkes estimate   =    -303.30999195 Ry
     estimated scf accuracy    <          6.6E-09 Ry

     iteration # 12     ecut=   100.00 Ry     beta=0.60
     Davidson diagonalization with overlap
     ethr =  1.65E-11,  avg # of iterations =  2.9

     total cpu time spent up to now is        7.3 secs

     total energy              =    -303.30999195 Ry
     Harris-Foulkes estimate   =    -303.30999195 Ry
     estimated scf accuracy    <          5.2E-11 Ry

     iteration # 13     ecut=   100.00 Ry     beta=0.60
     Davidson diagonalization with overlap
     ethr =  1.29E-13,  avg # of iterations =  3.8

     total cpu time spent up to now is        7.9 secs

     total energy              =    -303.30999195 Ry
     Harris-Foulkes estimate   =    -303.30999195 Ry
     estimated scf accuracy    <          3.2E-12 Ry

     iteration # 14     ecut=   100.00 Ry     beta=0.60
     Davidson diagonalization with overlap
     ethr =  1.00E-13,  avg # of iterations =  1.0

     total cpu time spent up to now is        8.2 secs

     End of self-consistent calculation

          k = 0.0833 0.0833 0.0833 (  6850 PWs)   bands (ev):

   -45.0170 -21.3409 -21.2941 -21.2938 -13.1698  -5.7394  -5.1210  -5.0405
     1.5872   1.5985   1.7448   8.6242   8.8192   8.8288   9.4312   9.4789
     9.8605  10.4832  10.8664  10.8888  13.4660  13.6410  13.6653  16.0524

          k = 0.0833 0.0833 0.2500 (  6839 PWs)   bands (ev):

   -45.0163 -21.3395 -21.3250 -21.2926 -13.0988  -5.8372  -5.0867  -4.9341
     1.6490   1.6642   1.9546   7.8934   8.5335   8.6441   9.0725   9.1324
     9.7972   9.8494  10.5097  10.6478  13.6873  14.2409  14.2892  16.1370

          k = 0.0833 0.0833 0.4167 (  6839 PWs)   bands (ev):

   -45.0157 -21.3559 -21.3381 -21.2913 -13.0252  -6.0074  -5.0696  -4.7132
     1.7108   1.8387   2.0481   7.1695   8.3026   8.4034   8.5762   8.9207
     9.6699   9.7975  10.0893  10.3694  13.7319  14.9582  15.0037  16.1246

          k = 0.0833 0.2500 0.2500 (  6847 PWs)   bands (ev):

   -45.0157 -21.3383 -21.3239 -21.3227 -13.0398  -5.7623  -4.9939  -4.9847
     1.5480   1.6752   2.0700   7.5738   8.0908   8.3354   8.7340   8.9559
     9.3150  10.0262  10.2998  10.7180  14.2373  14.4060  14.6099  16.6316

          k = 0.0833 0.2500 0.4167 (  6833 PWs)   bands (ev):

   -45.0151 -21.3538 -21.3370 -21.3215 -12.9791  -5.7824  -4.9997  -4.8241
     1.5584   1.7390   2.0045   7.0839   7.7336   7.9623   8.4559   8.7967
     9.4626   9.9048  10.0872  10.7093  14.3564  15.0311  15.1355  16.6853

          k = 0.0833 0.4167 0.4167 (  6854 PWs)   bands (ev):

   -45.0144 -21.3518 -21.3515 -21.3357 -12.9317  -5.5564  -4.9427  -4.9113
     1.5000   1.5562   1.9867   6.9115   7.2922   7.3412   8.4786   8.5148
     9.3458  10.0868  10.2222  11.0645  15.0384  15.0894  15.4473  16.7953

          k = 0.2500 0.2500 0.2500 (  6881 PWs)   bands (ev):

   -45.0151 -21.3691 -21.3223 -21.3212 -12.9888  -5.5624  -5.0176  -4.9430
     1.3819   1.3963   2.1355   7.3459   7.9636   8.0408   8.6314   8.7897
     8.8323  10.3349  10.4626  10.5155  14.6932  14.7564  14.7773  17.7800

          k = 0.2500 0.2500 0.4167 (  6839 PWs)   bands (ev):

   -45.0144 -21.3675 -21.3519 -21.3202 -12.9362  -5.5105  -4.9465  -4.8406
     1.2296   1.3985   1.8748   7.0558   7.7149   7.9738   8.1294   8.7969
     8.9512  10.1934  10.5126  10.6184  14.8530  15.2093  15.2806  17.7734

          k = 0.2500 0.4167 0.4167 (  6851 PWs)   bands (ev):

   -45.0138 -21.3660 -21.3501 -21.3498 -12.8923  -5.2754  -4.8569  -4.8517
     1.1053   1.1376   1.5044   6.9083   7.3463   7.9472   8.1310   8.7580
     8.8387  10.4095  10.4966  11.0304  15.3522  15.3680  15.5556  17.9991

          k = 0.4167 0.4167 0.4167 (  6854 PWs)   bands (ev):

   -45.0132 -21.3960 -21.3484 -21.3482 -12.8521  -4.9503  -4.8148  -4.7653
     0.7990   0.8149   0.9892   6.7492   7.2917   7.3537   8.6166   8.8790
     8.9205  10.8762  10.8965  11.0041  15.6716  15.6947  15.7054  18.4999

          k = 0.2500-0.0833 0.0833 (  6839 PWs)   bands (ev):

   -45.0163 -21.3724 -21.2927 -21.2924 -13.0991  -5.7895  -5.0402  -5.0243
     1.6418   1.6612   1.9636   7.8493   8.5035   8.6007   9.0668   9.1174
     9.7720   9.9574  10.5999  10.6178  13.5110  14.3585  14.3814  16.0508

          k = 0.4167-0.0833 0.0833 (  6839 PWs)   bands (ev):

   -45.0157 -21.4036 -21.2913 -21.2911 -13.0259  -5.9482  -5.0081  -4.8254
     1.6975   1.8284   2.0699   7.0544   8.2255   8.3547   8.6356   8.9428
     9.5850   9.8355  10.2887  10.4057  13.5553  15.0430  15.0739  16.0488

          k = 0.2500-0.2500 0.0833 (  6847 PWs)   bands (ev):

   -45.0157 -21.3706 -21.3233 -21.2913 -13.0400  -5.7109  -5.0718  -4.9527
     1.5561   1.6660   2.0720   7.5613   7.9853   8.3428   8.6795   8.8919
     9.5296  10.0700  10.2420  10.6897  14.2570  14.4400  14.6562  16.5842

          k = 0.4167-0.2500 0.0833 (  6833 PWs)   bands (ev):

   -45.0151 -21.4014 -21.3216 -21.2901 -12.9796  -5.7063  -4.9702  -4.9179
     1.5528   1.7538   1.9979   6.9956   7.5659   8.0601   8.3867   8.7422
     9.6503   9.9366  10.1624  10.6385  14.3266  15.0884  15.1835  16.6647

          k = 0.2500 0.4167 0.0833 (  6833 PWs)   bands (ev):

   -45.0151 -21.3689 -21.3538 -21.2901 -12.9792  -5.7468  -5.0316  -4.8207
     1.5730   1.7332   1.9994   7.0864   7.6572   7.9477   8.3408   8.8083
     9.5685   9.9414  10.1286  10.6538  14.4479  14.9990  15.1705  16.6979

          k = 0.4167-0.4167 0.0833 (  6854 PWs)   bands (ev):

   -45.0144 -21.3993 -21.3516 -21.2889 -12.9320  -5.4577  -5.0254  -4.9124
     1.5058   1.5712   1.9720   6.8835   7.1589   7.3571   8.3004   8.5121
     9.3884  10.2311  10.3806  10.9794  15.0313  15.1276  15.4824  16.8630

          k = 0.4167-0.2500 0.2500 (  6839 PWs)   bands (ev):

   -45.0144 -21.3995 -21.3206 -21.3197 -12.9365  -5.4541  -4.9470  -4.8903
     1.2167   1.4194   1.8676   6.9826   7.6008   8.0127   8.1522   8.8190
     9.0127  10.2686  10.5029  10.5763  14.8095  15.2373  15.3075  17.7402

          k = 0.4167-0.4167 0.2500 (  6851 PWs)   bands (ev):

   -45.0138 -21.3976 -21.3500 -21.3187 -12.8924  -5.1963  -4.9402  -4.8394
     1.1020   1.1516   1.4945   6.8793   7.2982   7.9022   8.1247   8.7359
     8.8561  10.4959  10.6187  10.9382  15.3255  15.3691  15.5880  18.0822

     highest occupied, lowest unoccupied level (ev):    11.0645   13.4660

!    total energy              =    -303.30999195 Ry
     Harris-Foulkes estimate   =    -303.30999195 Ry
     estimated scf accuracy    <          4.6E-13 Ry

     The total energy is the sum of the following terms:

     one-electron contribution =     -65.31749416 Ry
     hartree contribution      =      58.11891774 Ry
     xc contribution           =     -84.36954979 Ry
     ewald contribution        =    -211.74186573 Ry

     convergence has been achieved in  14 iterations

     Forces acting on atoms (cartesian axes, Ry/au):

     atom    1 type  3   force =     0.01735159    0.00000000    0.00000000
     atom    2 type  2   force =    -0.02303394    0.00000000    0.00000000
     atom    3 type  1   force =     0.00129978    0.00000000    0.00000000
     atom    4 type  1   force =     0.00219129    0.00000000    0.00000000
     atom    5 type  1   force =     0.00219129    0.00000000    0.00000000

     Total force =     0.029033     Total SCF correction =     0.000000


     Computing stress (Cartesian axis) and pressure

          total   stress  (Ry/bohr**3)                   (kbar)     P=   99.23
   0.00077238   0.00000000   0.00000000        113.62      0.00      0.00
   0.00000000   0.00062568   0.00000000          0.00     92.04      0.00
   0.00000000   0.00000000   0.00062568          0.00      0.00     92.04


     BFGS Geometry Optimization

     number of scf cycles    =   1
     number of bfgs steps    =   0

     enthalpy new            =    -303.3099919498 Ry

     new trust radius        =       0.0777408965 bohr
     new conv_thr            =            1.0E-12 Ry

     new unit-cell volume =    426.07148 a.u.^3 (    63.13728 Ang^3 )
     density =      6.13274 g/cm^3

CELL_PARAMETERS (alat=  7.40000000)
   1.019309542   0.000000000   0.000000000
   0.000000000   1.015641900   0.000000000
   0.000000000   0.000000000   1.015641900

ATOMIC_POSITIONS (crystal)
Ba       0.002344809   0.000000000   0.000000000
Ti       0.526887305   0.500000000   0.500000000
O        0.000175646   0.500000000   0.500000000
O        0.500296120   0.000000000   0.500000000
O        0.500296120   0.500000000   0.000000000



     Writing output data file bto.save
     NEW-OLD atomic charge density approx. for the potential
     extrapolated charge   41.90752, renormalised to   40.00000

     total cpu time spent up to now is       14.8 secs

     per-process dynamical memory:    71.3 Mb

     Self-consistent Calculation

     iteration #  1     ecut=   100.00 Ry     beta=0.60
     Davidson diagonalization with overlap
     ethr =  1.00E-06,  avg # of iterations = 14.2

     total cpu time spent up to now is       16.0 secs

     total energy              =    -302.93021015 Ry
     Harris-Foulkes estimate   =    -300.50079249 Ry
     estimated scf accuracy    <       0.28453506 Ry

     iteration #  2     ecut=   100.00 Ry     beta=0.60
     Davidson diagonalization with overlap
     ethr =  7.11E-04,  avg # of iterations =  5.1

     total cpu time spent up to now is       16.7 secs

     total energy              =    -303.14975242 Ry
     Harris-Foulkes estimate   =    -303.59692762 Ry
     estimated scf accuracy    <       1.54020018 Ry

     iteration #  3     ecut=   100.00 Ry     beta=0.60
     Davidson diagonalization with overlap
     ethr =  7.11E-04,  avg # of iterations =  3.4

     total cpu time spent up to now is       17.1 secs

     total energy              =    -303.32277041 Ry
     Harris-Foulkes estimate   =    -303.39544086 Ry
     estimated scf accuracy    <       0.29067077 Ry

     iteration #  4     ecut=   100.00 Ry     beta=0.60
     Davidson diagonalization with overlap
     ethr =  7.11E-04,  avg # of iterations =  1.0

     total cpu time spent up to now is       17.5 secs

     total energy              =    -303.32582581 Ry
     Harris-Foulkes estimate   =    -303.34014883 Ry
     estimated scf accuracy    <       0.07699691 Ry

     iteration #  5     ecut=   100.00 Ry     beta=0.60
     Davidson diagonalization with overlap
     ethr =  1.92E-04,  avg # of iterations =  3.0

     total cpu time spent up to now is       17.9 secs

     total energy              =    -303.32608061 Ry
     Harris-Foulkes estimate   =    -303.33059849 Ry
     estimated scf accuracy    <       0.03893358 Ry

     iteration #  6     ecut=   100.00 Ry     beta=0.60
     Davidson diagonalization with overlap
     ethr =  9.73E-05,  avg # of iterations =  1.0

     total cpu time spent up to now is       18.3 secs

     total energy              =    -303.32326923 Ry
     Harris-Foulkes estimate   =    -303.32654190 Ry
     estimated scf accuracy    <       0.02743358 Ry

     iteration #  7     ecut=   100.00 Ry     beta=0.60
     Davidson diagonalization with overlap
     ethr =  6.86E-05,  avg # of iterations =  1.0

     total cpu time spent up to now is       18.6 secs

     total energy              =    -303.31626996 Ry
     Harris-Foulkes estimate   =    -303.32360590 Ry
     estimated scf accuracy    <       0.01788702 Ry

     iteration #  8     ecut=   100.00 Ry     beta=0.60
     Davidson diagonalization with overlap
     ethr =  4.47E-05,  avg # of iterations =  2.4

     total cpu time spent up to now is       19.0 secs

     total energy              =    -303.31747386 Ry
     Harris-Foulkes estimate   =    -303.31817094 Ry
     estimated scf accuracy    <       0.00160887 Ry

     iteration #  9     ecut=   100.00 Ry     beta=0.60
     Davidson diagonalization with overlap
     ethr =  4.02E-06,  avg # of iterations =  3.3

     total cpu time spent up to now is       19.5 secs

     total energy              =    -303.31786115 Ry
     Harris-Foulkes estimate   =    -303.31781360 Ry
     estimated scf accuracy    <       0.00008973 Ry

     iteration # 10     ecut=   100.00 Ry     beta=0.60
     Davidson diagonalization with overlap
     ethr =  2.24E-07,  avg # of iterations =  2.0

     total cpu time spent up to now is       19.9 secs

          k = 0.0818 0.0820 0.0820     band energies (ev):

   -46.0628 -22.3254 -22.2986 -22.2984 -14.0097  -6.4007  -5.7615  -5.7056
     0.7699   0.7719   0.8973   7.8527   8.0369   8.0382   8.8179   8.8458
     9.2102   9.7107  10.0751  10.0861  12.5560  12.6786  12.7014  14.8708

          k = 0.0818 0.0820 0.2461     band energies (ev):

   -46.0624 -22.3246 -22.3226 -22.2975 -13.9548  -6.4538  -5.7350  -5.6295
     0.8201   0.8238   1.0674   7.1829   7.8065   7.9079   8.4269   8.4763
     9.1087   9.1536   9.7412   9.8574  12.7191  13.2723  13.3043  14.9146

          k = 0.0818 0.0820 0.4102     band energies (ev):

   -46.0619 -22.3469 -22.3234 -22.2965 -13.8983  -6.5754  -5.7191  -5.4555
     0.8728   0.9710   1.1342   6.5059   7.6341   7.7161   7.9278   8.2526
     8.9959   9.0743   9.3553   9.6078  12.7586  13.9293  13.9600  14.9016

          k = 0.0818 0.2461 0.2461     band energies (ev):

   -46.0619 -22.3238 -22.3216 -22.3211 -13.9084  -6.3719  -5.6728  -5.6609
     0.7217   0.8373   1.1586   6.9024   7.3845   7.6696   7.9934   8.3021
     8.6470   9.3620   9.5250   9.9403  13.2538  13.4050  13.6212  15.3696

          k = 0.0818 0.2461 0.4102     band energies (ev):

   -46.0614 -22.3454 -22.3226 -22.3201 -13.8609  -6.3685  -5.6681  -5.5423
     0.7340   0.8784   1.1006   6.4275   7.1033   7.2778   7.7648   8.1202
     8.7623   9.2038   9.3685   9.9514  13.3594  13.9831  14.0995  15.4259

          k = 0.0818 0.4102 0.4102     band energies (ev):

   -46.0609 -22.3440 -22.3438 -22.3216 -13.8228  -6.1550  -5.6363  -5.6070
     0.6666   0.7194   1.0903   6.2496   6.6845   6.6889   7.8160   7.8800
     8.5731   9.3708   9.4995  10.3064  13.9875  14.0310  14.3902  15.5376

          k = 0.2453 0.2461 0.2461     band energies (ev):

   -46.0614 -22.3466 -22.3207 -22.3201 -13.8690  -6.2037  -5.6854  -5.6301
     0.5889   0.6043   1.2081   6.7064   7.3031   7.3509   7.9235   8.0993
     8.1364   9.6487   9.6994   9.7741  13.6788  13.7298  13.7458  16.5191

          k = 0.2453 0.2461 0.4102     band energies (ev):

   -46.0610 -22.3454 -22.3440 -22.3192 -13.8274  -6.1362  -5.6271  -5.5544
     0.4682   0.5953   0.9928   6.3937   7.0762   7.3038   7.4282   8.0570
     8.2453   9.4929   9.7940   9.8804  13.8056  14.1633  14.2096  16.4780

          k = 0.2453 0.4102 0.4102     band energies (ev):

   -46.0605 -22.3444 -22.3426 -22.3426 -13.7919  -5.9178  -5.5647  -5.5579
     0.3552   0.3722   0.6896   6.2357   6.6937   7.2609   7.4232   8.0307
     8.0903   9.7067   9.7892  10.2809  14.2702  14.2852  14.4820  16.7316

          k = 0.4088 0.4102 0.4102     band energies (ev):

   -46.0600 -22.3668 -22.3416 -22.3415 -13.7606  -5.6435  -5.5299  -5.4892
     0.0933   0.1126   0.2567   6.0800   6.6771   6.7001   7.8601   8.1018
     8.1112  10.1389  10.1667  10.2619  14.5778  14.5830  14.5920  17.4590

          k = 0.2453-0.0820 0.0820     band energies (ev):

   -46.0624 -22.3490 -22.2976 -22.2974 -13.9563  -6.4288  -5.7015  -5.6918
     0.8166   0.8263   1.0711   7.1589   7.7890   7.8874   8.4350   8.4596
     9.1328   9.2013   9.8116   9.8426  12.5964  13.3412  13.3570  14.8681

          k = 0.4088-0.0820 0.0820     band energies (ev):

   -46.0619 -22.3723 -22.2966 -22.2965 -13.9014  -6.5404  -5.6780  -5.5392
     0.8642   0.9685   1.1507   6.4516   7.5834   7.6926   7.9708   8.2744
     8.9577   9.0975   9.5180   9.6430  12.6346  13.9616  13.9839  14.8646

          k = 0.2453-0.2461 0.0820     band energies (ev):

   -46.0619 -22.3477 -22.3215 -22.2966 -13.9098  -6.3444  -5.7286  -5.6373
     0.7320   0.8346   1.1612   6.8968   7.3194   7.6786   7.9753   8.2630
     8.8075   9.3804   9.4979   9.8995  13.2773  13.4185  13.6375  15.3598

          k = 0.4088-0.2461 0.0820     band energies (ev):

   -46.0615 -22.3708 -22.3203 -22.2956 -13.8637  -6.3233  -5.6535  -5.6116
     0.7351   0.8962   1.1020   6.3892   6.9809   7.3677   7.7333   8.0976
     8.8994   9.2202   9.4312   9.8848  13.3449  14.0011  14.1058  15.4403

          k = 0.2453 0.4102 0.0820     band energies (ev):

   -46.0614 -22.3465 -22.3453 -22.2956 -13.8621  -6.3499  -5.6947  -5.5401
     0.7489   0.8792   1.1031   6.4283   7.0589   7.2738   7.7138   8.1332
     8.8311   9.2249   9.3969   9.8910  13.4164  13.9630  14.1148  15.4555

          k = 0.4088-0.4102 0.0820     band energies (ev):

   -46.0610 -22.3693 -22.3439 -22.2948 -13.8253  -6.0962  -5.7024  -5.6112
     0.6833   0.7398   1.0864   6.2410   6.5882   6.7351   7.7223   7.8836
     8.6126   9.4556   9.5940  10.2273  13.9858  14.0346  14.3947  15.6178

          k = 0.4088-0.2461 0.2461     band energies (ev):

   -46.0610 -22.3694 -22.3195 -22.3190 -13.8288  -6.0995  -5.6368  -5.5863
     0.4561   0.6184   0.9912   6.3650   6.9993   7.3272   7.4494   8.0840
     8.2806   9.5621   9.8115   9.8139  13.7871  14.1637  14.2097  16.4825

          k = 0.4088-0.4102 0.2461     band energies (ev):

   -46.0605 -22.3680 -22.3427 -22.3182 -13.7932  -5.8664  -5.6300  -5.5500
     0.3540   0.3937   0.6836   6.2275   6.6732   7.2422   7.4169   8.0244
     8.1038   9.7627   9.8704  10.1987  14.2563  14.2752  14.4873  16.8184

     highest occupied, lowest unoccupied level (ev):    10.3064   12.5560

!    total energy              =    -303.31774786 Ry
     Harris-Foulkes estimate   =    -303.31787558 Ry
     estimated scf accuracy    <       0.00025401 Ry

     The total energy is the sum of the following terms:

     one-electron contribution =     -70.28308939 Ry
     hartree contribution      =      59.31403688 Ry
     xc contribution           =     -84.19249120 Ry
     ewald contribution        =    -208.27269920 Ry
     scf correction            =       0.11649505 Ry

     iteration # 11     ecut=   100.00 Ry     beta=0.60
     Davidson diagonalization with overlap
     ethr =  2.24E-07,  avg # of iterations =  3.0

     total cpu time spent up to now is       20.4 secs

     total energy              =    -303.31778667 Ry
     Harris-Foulkes estimate   =    -303.31778984 Ry
     estimated scf accuracy    <       0.00001226 Ry

     iteration # 12     ecut=   100.00 Ry     beta=0.60
     Davidson diagonalization with overlap
     ethr =  3.07E-08,  avg # of iterations =  1.6

     total cpu time spent up to now is       20.8 secs

     total energy              =    -303.31778709 Ry
     Harris-Foulkes estimate   =    -303.31778770 Ry
     estimated scf accuracy    <       0.00000219 Ry

     iteration # 13     ecut=   100.00 Ry     beta=0.60
     Davidson diagonalization with overlap
     ethr =  5.48E-09,  avg # of iterations =  2.9

     total cpu time spent up to now is       21.2 secs

     total energy              =    -303.31778739 Ry
     Harris-Foulkes estimate   =    -303.31778747 Ry
     estimated scf accuracy    <       0.00000047 Ry

     iteration # 14     ecut=   100.00 Ry     beta=0.60
     Davidson diagonalization with overlap
     ethr =  1.17E-09,  avg # of iterations =  2.3

     total cpu time spent up to now is       21.6 secs

     total energy              =    -303.31778732 Ry
     Harris-Foulkes estimate   =    -303.31778743 Ry
     estimated scf accuracy    <       0.00000024 Ry

     iteration # 15     ecut=   100.00 Ry     beta=0.60
     Davidson diagonalization with overlap
     ethr =  6.06E-10,  avg # of iterations =  2.5

     total cpu time spent up to now is       22.0 secs

     total energy              =    -303.31778736 Ry
     Harris-Foulkes estimate   =    -303.31778736 Ry
     estimated scf accuracy    <          4.8E-09 Ry

     iteration # 16     ecut=   100.00 Ry     beta=0.60
     Davidson diagonalization with overlap
     ethr =  1.20E-11,  avg # of iterations =  3.9

     total cpu time spent up to now is       22.6 secs

     total energy              =    -303.31778736 Ry
     Harris-Foulkes estimate   =    -303.31778737 Ry
     estimated scf accuracy    <       0.00000002 Ry

     iteration # 17     ecut=   100.00 Ry     beta=0.60
     Davidson diagonalization with overlap
     ethr =  1.20E-11,  avg # of iterations =  2.8

     total cpu time spent up to now is       23.0 secs

     total energy              =    -303.31778736 Ry
     Harris-Foulkes estimate   =    -303.31778736 Ry
     estimated scf accuracy    <          4.1E-09 Ry

     iteration # 18     ecut=   100.00 Ry     beta=0.60
     Davidson diagonalization with overlap
     ethr =  1.02E-11,  avg # of iterations =  2.4

     total cpu time spent up to now is       23.4 secs

     total energy              =    -303.31778736 Ry
     Harris-Foulkes estimate   =    -303.31778736 Ry
     estimated scf accuracy    <          1.7E-10 Ry

     iteration # 19     ecut=   100.00 Ry     beta=0.60
     Davidson diagonalization with overlap
     ethr =  4.27E-13,  avg # of iterations =  3.2

     total cpu time spent up to now is       23.8 secs

     total energy              =    -303.31778736 Ry
     Harris-Foulkes estimate   =    -303.31778736 Ry
     estimated scf accuracy    <          3.5E-11 Ry

     iteration # 20     ecut=   100.00 Ry     beta=0.60
     Davidson diagonalization with overlap
     ethr =  1.00E-13,  avg # of iterations =  2.6

     total cpu time spent up to now is       24.2 secs

          k = 0.0818 0.0820 0.0820     band energies (ev):

   -45.9868 -22.2556 -22.2285 -22.2283 -14.0294  -6.3631  -5.7200  -5.6633
     0.7532   0.7554   0.8806   7.8876   8.0744   8.0760   8.8494   8.8776
     9.2430   9.7507  10.1145  10.1258  12.6072  12.7295  12.7523  14.9361

          k = 0.0818 0.0820 0.2461     band energies (ev):

   -45.9863 -22.2547 -22.2527 -22.2274 -13.9747  -6.4167  -5.6932  -5.5877
     0.8033   0.8073   1.0511   7.2230   7.8430   7.9444   8.4571   8.5078
     9.1449   9.1864   9.7795   9.8966  12.7708  13.3257  13.3576  14.9794

          k = 0.0818 0.0820 0.4102     band energies (ev):

   -45.9859 -22.2771 -22.2535 -22.2264 -13.9186  -6.5390  -5.6771  -5.4137
     0.8551   0.9538   1.1193   6.5506   7.6680   7.7513   7.9585   8.2810
     9.0273   9.1090   9.3936   9.6484  12.8112  13.9858  14.0165  14.9665

          k = 0.0818 0.2461 0.2461     band energies (ev):

   -45.9859 -22.2539 -22.2516 -22.2512 -13.9286  -6.3345  -5.6315  -5.6191
     0.7064   0.8205   1.1417   6.9388   7.4301   7.7041   8.0257   8.3333
     8.6822   9.3940   9.5638   9.9752  13.3073  13.4594  13.6739  15.4335

          k = 0.0818 0.2461 0.4102     band energies (ev):

   -45.9854 -22.2756 -22.2528 -22.2502 -13.8815  -6.3311  -5.6264  -5.5013
     0.7183   0.8633   1.0831   6.4707   7.1358   7.3186   7.7987   8.1501
     8.7989   9.2363   9.4033   9.9861  13.4140  14.0400  14.1549  15.4895

          k = 0.0818 0.4102 0.4102     band energies (ev):

   -45.9849 -22.2742 -22.2740 -22.2517 -13.8436  -6.1158  -5.5961  -5.5662
     0.6527   0.7051   1.0716   6.2916   6.7118   6.7377   7.8475   7.9103
     8.6158   9.4013   9.5299  10.3429  14.0446  14.0885  14.4463  15.5997

          k = 0.2453 0.2461 0.2461     band energies (ev):

   -45.9854 -22.2768 -22.2508 -22.2501 -13.8894  -6.1657  -5.6443  -5.5883
     0.5733   0.5889   1.1913   6.7400   7.3477   7.3963   7.9610   8.1279
     8.1654   9.6828   9.7339   9.8089  13.7334  13.7834  13.8000  16.5847

          k = 0.2453 0.2461 0.4102     band energies (ev):

   -45.9849 -22.2757 -22.2742 -22.2493 -13.8480  -6.0979  -5.5852  -5.5132
     0.4525   0.5812   0.9766   6.4360   7.1119   7.3482   7.4657   8.0841
     8.2765   9.5270   9.8277   9.9150  13.8610  14.2191  14.2663  16.5419

          k = 0.2453 0.4102 0.4102     band energies (ev):

   -45.9845 -22.2747 -22.2728 -22.2728 -13.8128  -5.8781  -5.5235  -5.5163
     0.3406   0.3582   0.6741   6.2770   6.7426   7.2929   7.4632   8.0588
     8.1187   9.7399   9.8225  10.3175  14.3274  14.3425  14.5392  16.7887

          k = 0.4088 0.4102 0.4102     band energies (ev):

   -45.9840 -22.2972 -22.2718 -22.2716 -13.7815  -5.6027  -5.4880  -5.4468
     0.0789   0.0983   0.2424   6.1191   6.7253   6.7491   7.8871   8.1287
     8.1384  10.1745  10.2025  10.2984  14.6362  14.6410  14.6500  17.4807

          k = 0.2453-0.0820 0.0820     band energies (ev):

   -45.9864 -22.2793 -22.2275 -22.2273 -13.9763  -6.3913  -5.6607  -5.6494
     0.7994   0.8100   1.0549   7.1985   7.8257   7.9243   8.4665   8.4894
     9.1646   9.2379   9.8500   9.8827  12.6484  13.3941  13.4103  14.9334

          k = 0.4088-0.0820 0.0820     band energies (ev):

   -45.9859 -22.3028 -22.2265 -22.2264 -13.9218  -6.5033  -5.6354  -5.4986
     0.8465   0.9511   1.1361   6.4951   7.6175   7.7285   8.0019   8.3027
     8.9883   9.1304   9.5580   9.6841  12.6875  14.0179  14.0404  14.9299

          k = 0.2453-0.2461 0.0820     band energies (ev):

   -45.9859 -22.2780 -22.2516 -22.2265 -13.9300  -6.3067  -5.6880  -5.5951
     0.7168   0.8176   1.1444   6.9328   7.3628   7.7146   8.0080   8.2937
     8.8432   9.4145   9.5357   9.9340  13.3310  13.4728  13.6902  15.4245

          k = 0.4088-0.2461 0.0820     band energies (ev):

   -45.9854 -22.3012 -22.2504 -22.2255 -13.8843  -6.2852  -5.6125  -5.5705
     0.7192   0.8812   1.0846   6.4315   7.0141   7.4074   7.7673   8.1271
     8.9373   9.2541   9.4656   9.9191  13.3997  14.0578  14.1612  15.5048

          k = 0.2453 0.4102 0.0820     band energies (ev):

   -45.9854 -22.2768 -22.2755 -22.2255 -13.8827  -6.3123  -5.6532  -5.4989
     0.7332   0.8641   1.0855   6.4715   7.0908   7.3142   7.7468   8.1632
     8.8701   9.2588   9.4305   9.9252  13.4710  14.0200  14.1701  15.5199

          k = 0.4088-0.4102 0.0820     band energies (ev):

   -45.9850 -22.2997 -22.2742 -22.2246 -13.8460  -6.0562  -5.6629  -5.5704
     0.6693   0.7256   1.0675   6.2824   6.6231   6.7753   7.7533   7.9140
     8.6562   9.4871   9.6256  10.2632  14.0431  14.0919  14.4506  15.6809

          k = 0.4088-0.2461 0.2461     band energies (ev):

   -45.9850 -22.2999 -22.2496 -22.2491 -13.8495  -6.0606  -5.5967  -5.5438
     0.4402   0.6044   0.9749   6.4065   7.0339   7.3725   7.4869   8.1118
     8.3120   9.5967   9.8458   9.8475  13.8427  14.2191  14.2666  16.5472

          k = 0.4088-0.4102 0.2461     band energies (ev):

   -45.9845 -22.2985 -22.2729 -22.2483 -13.8140  -5.8261  -5.5894  -5.5083
     0.3393   0.3797   0.6681   6.2683   6.7213   7.2735   7.4576   8.0528
     8.1327   9.7965   9.9045  10.2347  14.3137  14.3324  14.5443  16.8772

     highest occupied, lowest unoccupied level (ev):    10.3429   12.6072

!    total energy              =    -303.31778736 Ry
     Harris-Foulkes estimate   =    -303.31778736 Ry
     estimated scf accuracy    <          1.5E-12 Ry

     The total energy is the sum of the following terms:

     one-electron contribution =     -70.17566750 Ry
     hartree contribution      =      59.32488370 Ry
     xc contribution           =     -84.19430686 Ry
     ewald contribution        =    -208.27269920 Ry
     scf correction            =       0.00000250 Ry

     iteration # 21     ecut=   100.00 Ry     beta=0.60
     Davidson diagonalization with overlap
     ethr =  1.00E-13,  avg # of iterations =  1.1

     total cpu time spent up to now is       24.6 secs

     total energy              =    -303.31778736 Ry
     Harris-Foulkes estimate   =    -303.31778736 Ry
     estimated scf accuracy    <          1.6E-12 Ry

     iteration # 22     ecut=   100.00 Ry     beta=0.60
     Davidson diagonalization with overlap
     ethr =  1.00E-13,  avg # of iterations =  1.0

     total cpu time spent up to now is       24.9 secs

     End of self-consistent calculation

          k = 0.0818 0.0820 0.0820 (  6850 PWs)   bands (ev):

   -45.9868 -22.2556 -22.2285 -22.2283 -14.0294  -6.3631  -5.7200  -5.6633
     0.7532   0.7554   0.8806   7.8876   8.0744   8.0760   8.8494   8.8776
     9.2430   9.7507  10.1145  10.1258  12.6072  12.7295  12.7523  14.9361

          k = 0.0818 0.0820 0.2461 (  6839 PWs)   bands (ev):

   -45.9863 -22.2547 -22.2527 -22.2274 -13.9747  -6.4168  -5.6932  -5.5877
     0.8033   0.8073   1.0511   7.2230   7.8430   7.9444   8.4571   8.5078
     9.1449   9.1864   9.7795   9.8966  12.7708  13.3257  13.3576  14.9794

          k = 0.0818 0.0820 0.4102 (  6839 PWs)   bands (ev):

   -45.9859 -22.2771 -22.2535 -22.2264 -13.9186  -6.5390  -5.6771  -5.4137
     0.8551   0.9538   1.1193   6.5506   7.6680   7.7513   7.9585   8.2810
     9.0273   9.1089   9.3936   9.6484  12.8112  13.9858  14.0165  14.9665

          k = 0.0818 0.2461 0.2461 (  6847 PWs)   bands (ev):

   -45.9859 -22.2539 -22.2516 -22.2512 -13.9286  -6.3345  -5.6315  -5.6191
     0.7063   0.8205   1.1417   6.9388   7.4301   7.7041   8.0257   8.3333
     8.6822   9.3940   9.5638   9.9752  13.3073  13.4594  13.6739  15.4335

          k = 0.0818 0.2461 0.4102 (  6833 PWs)   bands (ev):

   -45.9854 -22.2756 -22.2528 -22.2502 -13.8815  -6.3311  -5.6264  -5.5013
     0.7183   0.8633   1.0831   6.4707   7.1358   7.3186   7.7987   8.1501
     8.7989   9.2363   9.4033   9.9861  13.4140  14.0400  14.1549  15.4895

          k = 0.0818 0.4102 0.4102 (  6854 PWs)   bands (ev):

   -45.9849 -22.2742 -22.2740 -22.2517 -13.8436  -6.1158  -5.5961  -5.5662
     0.6527   0.7051   1.0716   6.2916   6.7118   6.7377   7.8475   7.9103
     8.6158   9.4013   9.5299  10.3429  14.0446  14.0885  14.4463  15.5997

          k = 0.2453 0.2461 0.2461 (  6881 PWs)   bands (ev):

   -45.9854 -22.2768 -22.2508 -22.2501 -13.8894  -6.1657  -5.6443  -5.5883
     0.5733   0.5889   1.1913   6.7400   7.3477   7.3963   7.9610   8.1279
     8.1654   9.6828   9.7339   9.8089  13.7334  13.7834  13.8000  16.5847

          k = 0.2453 0.2461 0.4102 (  6839 PWs)   bands (ev):

   -45.9849 -22.2757 -22.2742 -22.2493 -13.8480  -6.0979  -5.5852  -5.5132
     0.4525   0.5812   0.9766   6.4360   7.1119   7.3482   7.4657   8.0841
     8.2765   9.5270   9.8277   9.9150  13.8610  14.2191  14.2663  16.5419

          k = 0.2453 0.4102 0.4102 (  6851 PWs)   bands (ev):

   -45.9845 -22.2747 -22.2728 -22.2728 -13.8128  -5.8781  -5.5235  -5.5163
     0.3406   0.3582   0.6741   6.2770   6.7426   7.2929   7.4632   8.0588
     8.1187   9.7399   9.8225  10.3175  14.3274  14.3425  14.5392  16.7887

          k = 0.4088 0.4102 0.4102 (  6854 PWs)   bands (ev):

   -45.9840 -22.2972 -22.2718 -22.2716 -13.7815  -5.6027  -5.4880  -5.4468
     0.0789   0.0983   0.2424   6.1191   6.7253   6.7491   7.8871   8.1287
     8.1384  10.1745  10.2025  10.2984  14.6362  14.6410  14.6500  17.4807

          k = 0.2453-0.0820 0.0820 (  6839 PWs)   bands (ev):

   -45.9864 -22.2793 -22.2275 -22.2273 -13.9763  -6.3913  -5.6607  -5.6494
     0.7994   0.8100   1.0549   7.1985   7.8257   7.9243   8.4665   8.4894
     9.1646   9.2379   9.8500   9.8827  12.6484  13.3941  13.4103  14.9334

          k = 0.4088-0.0820 0.0820 (  6839 PWs)   bands (ev):

   -45.9859 -22.3028 -22.2265 -22.2264 -13.9218  -6.5033  -5.6354  -5.4986
     0.8465   0.9511   1.1361   6.4951   7.6175   7.7285   8.0019   8.3027
     8.9883   9.1304   9.5580   9.6841  12.6875  14.0179  14.0404  14.9299

          k = 0.2453-0.2461 0.0820 (  6847 PWs)   bands (ev):

   -45.9859 -22.2780 -22.2516 -22.2265 -13.9300  -6.3067  -5.6880  -5.5951
     0.7168   0.8176   1.1444   6.9328   7.3628   7.7146   8.0080   8.2937
     8.8432   9.4145   9.5357   9.9340  13.3310  13.4728  13.6902  15.4245

          k = 0.4088-0.2461 0.0820 (  6833 PWs)   bands (ev):

   -45.9854 -22.3012 -22.2504 -22.2255 -13.8843  -6.2852  -5.6125  -5.5705
     0.7192   0.8812   1.0846   6.4315   7.0141   7.4074   7.7673   8.1271
     8.9373   9.2541   9.4656   9.9191  13.3997  14.0578  14.1611  15.5048

          k = 0.2453 0.4102 0.0820 (  6833 PWs)   bands (ev):

   -45.9854 -22.2768 -22.2755 -22.2255 -13.8827  -6.3123  -5.6532  -5.4989
     0.7332   0.8641   1.0855   6.4715   7.0908   7.3142   7.7468   8.1632
     8.8701   9.2588   9.4305   9.9252  13.4710  14.0200  14.1701  15.5199

          k = 0.4088-0.4102 0.0820 (  6854 PWs)   bands (ev):

   -45.9850 -22.2997 -22.2742 -22.2246 -13.8461  -6.0562  -5.6629  -5.5704
     0.6693   0.7256   1.0675   6.2824   6.6231   6.7753   7.7533   7.9140
     8.6562   9.4871   9.6256  10.2632  14.0431  14.0919  14.4506  15.6809

          k = 0.4088-0.2461 0.2461 (  6839 PWs)   bands (ev):

   -45.9850 -22.2999 -22.2496 -22.2491 -13.8495  -6.0606  -5.5967  -5.5438
     0.4402   0.6044   0.9749   6.4065   7.0339   7.3725   7.4869   8.1118
     8.3120   9.5967   9.8458   9.8475  13.8427  14.2191  14.2666  16.5472

          k = 0.4088-0.4102 0.2461 (  6851 PWs)   bands (ev):

   -45.9845 -22.2985 -22.2729 -22.2483 -13.8140  -5.8261  -5.5894  -5.5083
     0.3393   0.3797   0.6680   6.2683   6.7213   7.2735   7.4576   8.0528
     8.1327   9.7965   9.9045  10.2347  14.3137  14.3324  14.5443  16.8772

     highest occupied, lowest unoccupied level (ev):    10.3429   12.6072

!    total energy              =    -303.31778736 Ry
     Harris-Foulkes estimate   =    -303.31778736 Ry
     estimated scf accuracy    <          3.2E-13 Ry

     The total energy is the sum of the following terms:

     one-electron contribution =     -70.17566897 Ry
     hartree contribution      =      59.32488766 Ry
     xc contribution           =     -84.19430685 Ry
     ewald contribution        =    -208.27269920 Ry

     convergence has been achieved in  22 iterations

     Forces acting on atoms (cartesian axes, Ry/au):

     atom    1 type  3   force =     0.01248842    0.00000000    0.00000000
     atom    2 type  2   force =    -0.00597304    0.00000000    0.00000000
     atom    3 type  1   force =    -0.01337881    0.00000000    0.00000000
     atom    4 type  1   force =     0.00343172    0.00000000    0.00000000
     atom    5 type  1   force =     0.00343172    0.00000000    0.00000000

     Total force =     0.019854     Total SCF correction =     0.000000


     Computing stress (Cartesian axis) and pressure

          total   stress  (Ry/bohr**3)                   (kbar)     P=    5.33
   0.00006592   0.00000000   0.00000000          9.70      0.00      0.00
   0.00000000   0.00002140   0.00000000          0.00      3.15      0.00
   0.00000000   0.00000000   0.00002140          0.00      0.00      3.15


     number of scf cycles    =   2
     number of bfgs steps    =   1

     enthalpy old            =    -303.3099919498 Ry
     enthalpy new            =    -303.3177873643 Ry

     CASE: enthalpy_new < enthalpy_old

     new trust radius        =       0.0150544969 bohr
     new conv_thr            =            1.3E-13 Ry

     new unit-cell volume =    427.98048 a.u.^3 (    63.42016 Ang^3 )
     density =      6.10538 g/cm^3

CELL_PARAMETERS (alat=  7.40000000)
   1.021729557   0.000000000   0.000000000
   0.000000000   1.016708430   0.000000000
   0.000000000   0.000000000   1.016708430

ATOMIC_POSITIONS (crystal)
Ba       0.004282432   0.000000000   0.000000000
Ti       0.525901358   0.500000000   0.500000000
O       -0.001820206   0.500000000   0.500000000
O        0.500818208   0.000000000   0.500000000
O        0.500818208   0.500000000   0.000000000



     Writing output data file bto.save
     NEW-OLD atomic charge density approx. for the potential
     extrapolated charge   40.17389, renormalised to   40.00000

     total cpu time spent up to now is       26.4 secs

     per-process dynamical memory:    71.3 Mb

     Self-consistent Calculation

     iteration #  1     ecut=   100.00 Ry     beta=0.60
     Davidson diagonalization with overlap
     ethr =  1.00E-06,  avg # of iterations =  4.2

     total cpu time spent up to now is       27.1 secs

     total energy              =    -303.31444562 Ry
     Harris-Foulkes estimate   =    -303.05480398 Ry
     estimated scf accuracy    <       0.00289758 Ry

     iteration #  2     ecut=   100.00 Ry     beta=0.60
     Davidson diagonalization with overlap
     ethr =  7.24E-06,  avg # of iterations =  4.2

     total cpu time spent up to now is       27.7 secs

     total energy              =    -303.31716518 Ry
     Harris-Foulkes estimate   =    -303.32127212 Ry
     estimated scf accuracy    <       0.01317357 Ry

     iteration #  3     ecut=   100.00 Ry     beta=0.60
     Davidson diagonalization with overlap
     ethr =  7.24E-06,  avg # of iterations =  3.2

     total cpu time spent up to now is       28.2 secs

     total energy              =    -303.31837950 Ry
     Harris-Foulkes estimate   =    -303.31869662 Ry
     estimated scf accuracy    <       0.00140469 Ry

     iteration #  4     ecut=   100.00 Ry     beta=0.60
     Davidson diagonalization with overlap
     ethr =  3.51E-06,  avg # of iterations =  1.3

     total cpu time spent up to now is       28.6 secs

     total energy              =    -303.31819874 Ry
     Harris-Foulkes estimate   =    -303.31844726 Ry
     estimated scf accuracy    <       0.00073181 Ry

     iteration #  5     ecut=   100.00 Ry     beta=0.60
     Davidson diagonalization with overlap
     ethr =  1.83E-06,  avg # of iterations =  2.3

     total cpu time spent up to now is       29.0 secs

     total energy              =    -303.31823638 Ry
     Harris-Foulkes estimate   =    -303.31826251 Ry
     estimated scf accuracy    <       0.00014113 Ry

     iteration #  6     ecut=   100.00 Ry     beta=0.60
     Davidson diagonalization with overlap
     ethr =  3.53E-07,  avg # of iterations =  1.2

     total cpu time spent up to now is       29.3 secs

     total energy              =    -303.31821630 Ry
     Harris-Foulkes estimate   =    -303.31824206 Ry
     estimated scf accuracy    <       0.00005995 Ry

     iteration #  7     ecut=   100.00 Ry     beta=0.60
     Davidson diagonalization with overlap
     ethr =  1.50E-07,  avg # of iterations =  3.2

     total cpu time spent up to now is       29.8 secs

     total energy              =    -303.31822592 Ry
     Harris-Foulkes estimate   =    -303.31822653 Ry
     estimated scf accuracy    <       0.00000099 Ry

     iteration #  8     ecut=   100.00 Ry     beta=0.60
     Davidson diagonalization with overlap
     ethr =  2.49E-09,  avg # of iterations =  3.3

     total cpu time spent up to now is       30.3 secs

     total energy              =    -303.31822674 Ry
     Harris-Foulkes estimate   =    -303.31822676 Ry
     estimated scf accuracy    <       0.00000022 Ry

     iteration #  9     ecut=   100.00 Ry     beta=0.60
     Davidson diagonalization with overlap
     ethr =  5.48E-10,  avg # of iterations =  1.0

     total cpu time spent up to now is       30.7 secs

     total energy              =    -303.31822666 Ry
     Harris-Foulkes estimate   =    -303.31822675 Ry
     estimated scf accuracy    <       0.00000015 Ry

     iteration # 10     ecut=   100.00 Ry     beta=0.60
     Davidson diagonalization with overlap
     ethr =  3.71E-10,  avg # of iterations =  3.3

     total cpu time spent up to now is       31.1 secs

          k = 0.0816 0.0820 0.0820     band energies (ev):

   -46.0657 -22.3331 -22.3046 -22.3044 -14.1055  -6.4163  -5.7733  -5.7188
     0.6802   0.6804   0.8046   7.8260   8.0100   8.0167   8.7947   8.8189
     9.1891   9.6826  10.0479  10.0573  12.5385  12.6554  12.6794  14.8471

          k = 0.0816 0.0820 0.2459     band energies (ev):

   -46.0653 -22.3322 -22.3285 -22.3035 -14.0520  -6.4661  -5.7472  -5.6449
     0.7279   0.7321   0.9719   7.1662   7.7845   7.8842   8.3969   8.4487
     9.0836   9.1302   9.7157   9.8284  12.6956  13.2542  13.2846  14.8856

          k = 0.0816 0.0820 0.4098     band energies (ev):

   -46.0648 -22.3525 -22.3311 -22.3025 -13.9971  -6.5846  -5.7310  -5.4736
     0.7795   0.8759   1.0376   6.4938   7.6131   7.6942   7.8999   8.2215
     8.9719   9.0463   9.3314   9.5835  12.7353  13.9108  13.9398  14.8720

          k = 0.0816 0.2459 0.2459     band energies (ev):

   -46.0648 -22.3313 -22.3276 -22.3269 -14.0068  -6.3829  -5.6870  -5.6750
     0.6314   0.7444   1.0602   6.8836   7.3751   7.6474   7.9627   8.2666
     8.6199   9.3414   9.4987   9.9122  13.2325  13.3873  13.6012  15.3336

          k = 0.0816 0.2459 0.4098     band energies (ev):

   -46.0643 -22.3510 -22.3303 -22.3260 -13.9606  -6.3776  -5.6811  -5.5591
     0.6434   0.7852   1.0013   6.4145   7.0808   7.2637   7.7363   8.0844
     8.7331   9.1802   9.3476   9.9251  13.3400  13.9642  14.0791  15.3887

          k = 0.0816 0.4098 0.4098     band energies (ev):

   -46.0639 -22.3496 -22.3494 -22.3293 -13.9234  -6.1631  -5.6516  -5.6221
     0.5761   0.6284   0.9903   6.2352   6.6575   6.6811   7.7844   7.8469
     8.5486   9.3465   9.4745  10.2829  13.9682  14.0125  14.3699  15.4960

          k = 0.2447 0.2459 0.2459     band energies (ev):

   -46.0644 -22.3536 -22.3266 -22.3259 -13.9688  -6.2176  -5.6999  -5.6446
     0.5010   0.5181   1.1087   6.6881   7.2970   7.3433   7.8976   8.0683
     8.0993   9.6268   9.6677   9.7481  13.6562  13.7068  13.7228  16.4935

          k = 0.2447 0.2459 0.4098     band energies (ev):

   -46.0639 -22.3525 -22.3496 -22.3251 -13.9281  -6.1487  -5.6414  -5.5707
     0.3837   0.5081   0.8976   6.3799   7.0576   7.2936   7.4103   8.0188
     8.2101   9.4684   9.7662   9.8556  13.7817  14.1427  14.1871  16.4400

          k = 0.2447 0.4098 0.4098     band energies (ev):

   -46.0634 -22.3515 -22.3483 -22.3482 -13.8935  -5.9301  -5.5804  -5.5734
     0.2721   0.2875   0.6007   6.2201   6.6858   7.2330   7.4053   7.9923
     8.0511   9.6815   9.7646  10.2580  14.2477  14.2634  14.4614  16.6832

          k = 0.4078 0.4098 0.4098     band energies (ev):

   -46.0630 -22.3733 -22.3473 -22.3471 -13.8631  -5.6599  -5.5464  -5.5051
     0.0136   0.0353   0.1765   6.0669   6.6757   6.6921   7.8209   8.0618
     8.0671  10.1103  10.1406  10.2386  14.5547  14.5585  14.5689  17.3950

          k = 0.2447-0.0820 0.0820     band energies (ev):

   -46.0653 -22.3560 -22.3036 -22.3035 -14.0540  -6.4442  -5.7154  -5.7052
     0.7255   0.7354   0.9749   7.1444   7.7730   7.8730   8.4078   8.4288
     9.1120   9.1748   9.7840   9.8193  12.5798  13.3138  13.3283  14.8445

          k = 0.4078-0.0820 0.0820     band energies (ev):

   -46.0649 -22.3788 -22.3027 -22.3025 -14.0011  -6.5530  -5.6914  -5.5582
     0.7714   0.8743   1.0548   6.4514   7.5765   7.6834   7.9365   8.2407
     8.9374   9.0686   9.4952   9.6230  12.6184  13.9307  13.9516  14.8408

          k = 0.2447-0.2459 0.0820     band energies (ev):

   -46.0648 -22.3548 -22.3274 -22.3026 -14.0086  -6.3585  -5.7428  -5.6516
     0.6429   0.7431   1.0632   6.8808   7.3120   7.6584   7.9505   8.2363
     8.7820   9.3568   9.4736   9.8668  13.2565  13.3933  13.6123  15.3324

          k = 0.4078-0.2459 0.0820     band energies (ev):

   -46.0644 -22.3773 -22.3262 -22.3017 -13.9643  -6.3365  -5.6695  -5.6284
     0.6455   0.8054   1.0049   6.3875   6.9745   7.3418   7.7220   8.0660
     8.8745   9.1951   9.4055   9.8553  13.3266  13.9699  14.0761  15.4135

          k = 0.2447 0.4098 0.0820     band energies (ev):

   -46.0644 -22.3535 -22.3510 -22.3017 -13.9622  -6.3617  -5.7088  -5.5570
     0.6594   0.7874   1.0059   6.4163   7.0396   7.2591   7.6984   8.1052
     8.8060   9.1992   9.3680   9.8594  13.3887  13.9439  14.0911  15.4258

          k = 0.4078-0.4098 0.0820     band energies (ev):

   -46.0639 -22.3757 -22.3496 -22.3008 -13.9266  -6.1094  -5.7201  -5.6271
     0.5959   0.6520   0.9888   6.2338   6.5776   6.7209   7.7127   7.8581
     8.5899   9.4216   9.5588  10.1980  13.9647  14.0050  14.3666  15.5881

          k = 0.4078-0.2459 0.2459     band energies (ev):

   -46.0639 -22.3759 -22.3254 -22.3249 -13.9300  -6.1135  -5.6549  -5.6010
     0.3706   0.5338   0.8968   6.3618   6.9895   7.3207   7.4222   8.0438
     8.2492   9.5410   9.7814   9.7879  13.7669  14.1361  14.1803  16.4566

          k = 0.4078-0.4098 0.2459     band energies (ev):

   -46.0635 -22.3746 -22.3484 -22.3241 -13.8951  -5.8810  -5.6473  -5.5658
     0.2709   0.3126   0.5952   6.2183   6.6704   7.2183   7.4013   7.9886
     8.0663   9.7347   9.8429  10.1706  14.2324  14.2509  14.4607  16.7841

     highest occupied, lowest unoccupied level (ev):    10.2829   12.5385

!    total energy              =    -303.31822670 Ry
     Harris-Foulkes estimate   =    -303.31822672 Ry
     estimated scf accuracy    <       0.00000004 Ry

     The total energy is the sum of the following terms:

     one-electron contribution =     -70.66741282 Ry
     hartree contribution      =      59.46574566 Ry
     xc contribution           =     -84.18106901 Ry
     ewald contribution        =    -207.93698005 Ry
     scf correction            =       0.00148952 Ry

     iteration # 11     ecut=   100.00 Ry     beta=0.60
     Davidson diagonalization with overlap
     ethr =  1.06E-10,  avg # of iterations =  2.6

     total cpu time spent up to now is       31.5 secs

     total energy              =    -303.31822670 Ry
     Harris-Foulkes estimate   =    -303.31822671 Ry
     estimated scf accuracy    <          2.7E-10 Ry

     iteration # 12     ecut=   100.00 Ry     beta=0.60
     Davidson diagonalization with overlap
     ethr =  6.83E-13,  avg # of iterations =  3.7

     total cpu time spent up to now is       32.1 secs

     total energy              =    -303.31822671 Ry
     Harris-Foulkes estimate   =    -303.31822671 Ry
     estimated scf accuracy    <          2.6E-11 Ry

     iteration # 13     ecut=   100.00 Ry     beta=0.60
     Davidson diagonalization with overlap
     ethr =  1.00E-13,  avg # of iterations =  2.1

     total cpu time spent up to now is       32.5 secs

     total energy              =    -303.31822671 Ry
     Harris-Foulkes estimate   =    -303.31822671 Ry
     estimated scf accuracy    <          1.1E-11 Ry

     iteration # 14     ecut=   100.00 Ry     beta=0.60
     Davidson diagonalization with overlap
     ethr =  1.00E-13,  avg # of iterations =  1.0

     total cpu time spent up to now is       32.9 secs

     total energy              =    -303.31822671 Ry
     Harris-Foulkes estimate   =    -303.31822671 Ry
     estimated scf accuracy    <          9.4E-13 Ry

     iteration # 15     ecut=   100.00 Ry     beta=0.60
     Davidson diagonalization with overlap
     ethr =  1.00E-13,  avg # of iterations =  1.0

     total cpu time spent up to now is       33.2 secs

     End of self-consistent calculation

          k = 0.0816 0.0820 0.0820 (  6850 PWs)   bands (ev):

   -46.0647 -22.3321 -22.3036 -22.3034 -14.1058  -6.4160  -5.7729  -5.7184
     0.6800   0.6801   0.8044   7.8264   8.0104   8.0170   8.7950   8.8192
     9.1894   9.6830  10.0483  10.0576  12.5393  12.6561  12.6801  14.8480

          k = 0.0816 0.0820 0.2459 (  6839 PWs)   bands (ev):

   -46.0642 -22.3311 -22.3275 -22.3025 -14.0523  -6.4658  -5.7469  -5.6446
     0.7277   0.7318   0.9717   7.1666   7.7848   7.8845   8.3972   8.4490
     9.0839   9.1304   9.7161   9.8287  12.6963  13.2550  13.2853  14.8865

          k = 0.0816 0.0820 0.4098 (  6839 PWs)   bands (ev):

   -46.0637 -22.3514 -22.3300 -22.3015 -13.9974  -6.5842  -5.7307  -5.4733
     0.7792   0.8756   1.0373   6.4942   7.6134   7.6945   7.9002   8.2217
     8.9722   9.0466   9.3317   9.5839  12.7361  13.9116  13.9406  14.8729

          k = 0.0816 0.2459 0.2459 (  6847 PWs)   bands (ev):

   -46.0637 -22.3303 -22.3265 -22.3259 -14.0071  -6.3825  -5.6867  -5.6746
     0.6311   0.7442   1.0599   6.8839   7.3755   7.6477   7.9630   8.2669
     8.6203   9.3417   9.4991   9.9125  13.2333  13.3880  13.6020  15.3345

          k = 0.0816 0.2459 0.4098 (  6833 PWs)   bands (ev):

   -46.0632 -22.3499 -22.3292 -22.3250 -13.9609  -6.3772  -5.6807  -5.5587
     0.6431   0.7850   1.0011   6.4149   7.0811   7.2641   7.7366   8.0846
     8.7334   9.1805   9.3480   9.9254  13.3408  13.9650  14.0799  15.3896

          k = 0.0816 0.4098 0.4098 (  6854 PWs)   bands (ev):

   -46.0628 -22.3486 -22.3483 -22.3282 -13.9237  -6.1627  -5.6513  -5.6217
     0.5759   0.6282   0.9900   6.2356   6.6578   6.6816   7.7847   7.8472
     8.5490   9.3468   9.4748  10.2832  13.9690  14.0133  14.3707  15.4969

          k = 0.2447 0.2459 0.2459 (  6881 PWs)   bands (ev):

   -46.0633 -22.3526 -22.3255 -22.3249 -13.9691  -6.2172  -5.6995  -5.6443
     0.5008   0.5178   1.1084   6.6884   7.2974   7.3438   7.8980   8.0686
     8.0996   9.6271   9.6680   9.7484  13.6570  13.7075  13.7235  16.4944

          k = 0.2447 0.2459 0.4098 (  6839 PWs)   bands (ev):

   -46.0628 -22.3515 -22.3486 -22.3241 -13.9284  -6.1483  -5.6410  -5.5704
     0.3834   0.5079   0.8973   6.3803   7.0579   7.2940   7.4106   8.0190
     8.2104   9.4687   9.7666   9.8558  13.7825  14.1435  14.1879  16.4409

          k = 0.2447 0.4098 0.4098 (  6851 PWs)   bands (ev):

   -46.0623 -22.3504 -22.3473 -22.3472 -13.8937  -5.9297  -5.5801  -5.5730
     0.2719   0.2873   0.6005   6.2205   6.6863   7.2333   7.4057   7.9926
     8.0513   9.6818   9.7649  10.2583  14.2485  14.2642  14.4622  16.6840

          k = 0.4078 0.4098 0.4098 (  6854 PWs)   bands (ev):

   -46.0619 -22.3723 -22.3462 -22.3461 -13.8634  -5.6595  -5.5460  -5.5048
     0.0134   0.0350   0.1763   6.0672   6.6763   6.6926   7.8212   8.0621
     8.0674  10.1106  10.1410  10.2389  14.5556  14.5593  14.5697  17.3952

          k = 0.2447-0.0820 0.0820 (  6839 PWs)   bands (ev):

   -46.0642 -22.3550 -22.3026 -22.3024 -14.0542  -6.4439  -5.7149  -5.7048
     0.7253   0.7351   0.9747   7.1448   7.7734   7.8733   8.4082   8.4290
     9.1123   9.1751   9.7844   9.8197  12.5806  13.3146  13.3291  14.8454

          k = 0.4078-0.0820 0.0820 (  6839 PWs)   bands (ev):

   -46.0638 -22.3777 -22.3016 -22.3015 -14.0014  -6.5527  -5.6911  -5.5577
     0.7712   0.8740   1.0546   6.4519   7.5768   7.6837   7.9368   8.2409
     8.9377   9.0689   9.4955   9.6234  12.6191  13.9315  13.9524  14.8417

          k = 0.2447-0.2459 0.0820 (  6847 PWs)   bands (ev):

   -46.0637 -22.3537 -22.3263 -22.3016 -14.0089  -6.3582  -5.7424  -5.6513
     0.6427   0.7429   1.0629   6.8812   7.3125   7.6588   7.9508   8.2366
     8.7823   9.3571   9.4740   9.8671  13.2573  13.3941  13.6131  15.3333

          k = 0.4078-0.2459 0.0820 (  6833 PWs)   bands (ev):

   -46.0633 -22.3762 -22.3252 -22.3007 -13.9645  -6.3362  -5.6691  -5.6280
     0.6453   0.8051   1.0047   6.3879   6.9748   7.3422   7.7223   8.0663
     8.8748   9.1953   9.4058   9.8557  13.3274  13.9707  14.0769  15.4144

          k = 0.2447 0.4098 0.0820 (  6833 PWs)   bands (ev):

   -46.0633 -22.3525 -22.3500 -22.3007 -13.9625  -6.3614  -5.7084  -5.5567
     0.6592   0.7872   1.0057   6.4167   7.0399   7.2596   7.6987   8.1055
     8.8063   9.1995   9.3683   9.8597  13.3895  13.9447  14.0919  15.4267

          k = 0.4078-0.4098 0.0820 (  6854 PWs)   bands (ev):

   -46.0628 -22.3747 -22.3486 -22.2998 -13.9269  -6.1091  -5.7197  -5.6268
     0.5957   0.6518   0.9886   6.2342   6.5780   6.7213   7.7130   7.8584
     8.5903   9.4218   9.5590  10.1983  13.9655  14.0059  14.3674  15.5889

          k = 0.4078-0.2459 0.2459 (  6839 PWs)   bands (ev):

   -46.0628 -22.3749 -22.3244 -22.3239 -13.9303  -6.1132  -5.6544  -5.6006
     0.3704   0.5336   0.8966   6.3623   6.9898   7.3212   7.4225   8.0441
     8.2495   9.5413   9.7817   9.7882  13.7676  14.1369  14.1812  16.4574

          k = 0.4078-0.4098 0.2459 (  6851 PWs)   bands (ev):

   -46.0624 -22.3735 -22.3474 -22.3231 -13.8954  -5.8807  -5.6469  -5.5655
     0.2707   0.3124   0.5950   6.2187   6.6709   7.2186   7.4017   7.9889
     8.0666   9.7350   9.8432  10.1709  14.2332  14.2517  14.4616  16.7848

     highest occupied, lowest unoccupied level (ev):    10.2832   12.5393

!    total energy              =    -303.31822671 Ry
     Harris-Foulkes estimate   =    -303.31822671 Ry
     estimated scf accuracy    <          1.2E-13 Ry

     The total energy is the sum of the following terms:

     one-electron contribution =     -70.66596100 Ry
     hartree contribution      =      59.46579093 Ry
     xc contribution           =     -84.18107659 Ry
     ewald contribution        =    -207.93698005 Ry

     convergence has been achieved in  15 iterations

     Forces acting on atoms (cartesian axes, Ry/au):

     atom    1 type  3   force =     0.01013351    0.00000000    0.00000000
     atom    2 type  2   force =    -0.00258201    0.00000000    0.00000000
     atom    3 type  1   force =    -0.01061705    0.00000000    0.00000000
     atom    4 type  1   force =     0.00153278    0.00000000    0.00000000
     atom    5 type  1   force =     0.00153278    0.00000000    0.00000000

     Total force =     0.015059     Total SCF correction =     0.000000


     Computing stress (Cartesian axis) and pressure

          total   stress  (Ry/bohr**3)                   (kbar)     P=   -1.22
   0.00001644   0.00000000   0.00000000          2.42      0.00      0.00
   0.00000000  -0.00002070   0.00000000          0.00     -3.05      0.00
   0.00000000   0.00000000  -0.00002070          0.00      0.00     -3.05


     number of scf cycles    =   3
     number of bfgs steps    =   2

     enthalpy old            =    -303.3177873643 Ry
     enthalpy new            =    -303.3182267053 Ry

     CASE: enthalpy_new < enthalpy_old

     new trust radius        =       0.0165992627 bohr
     new conv_thr            =            4.4E-14 Ry

     new unit-cell volume =    428.68120 a.u.^3 (    63.52400 Ang^3 )
     density =      6.09540 g/cm^3

CELL_PARAMETERS (alat=  7.40000000)
   1.023319933   0.000000000   0.000000000
   0.000000000   1.016749400   0.000000000
   0.000000000   0.000000000   1.016749400

ATOMIC_POSITIONS (crystal)
Ba       0.006450525   0.000000000   0.000000000
Ti       0.525162241   0.500000000   0.500000000
O       -0.004015644   0.500000000   0.500000000
O        0.501201439   0.000000000   0.500000000
O        0.501201439   0.500000000   0.000000000



     Writing output data file bto.save
     NEW-OLD atomic charge density approx. for the potential
     extrapolated charge   40.06372, renormalised to   40.00000

     total cpu time spent up to now is       34.7 secs

     per-process dynamical memory:    71.3 Mb

     Self-consistent Calculation

     iteration #  1     ecut=   100.00 Ry     beta=0.60
     Davidson diagonalization with overlap
     ethr =  1.00E-06,  avg # of iterations =  4.1

     total cpu time spent up to now is       35.3 secs

     total energy              =    -303.31804015 Ry
     Harris-Foulkes estimate   =    -303.22154036 Ry
     estimated scf accuracy    <       0.00036636 Ry

     iteration #  2     ecut=   100.00 Ry     beta=0.60
     Davidson diagonalization with overlap
     ethr =  9.16E-07,  avg # of iterations =  4.1

     total cpu time spent up to now is       35.9 secs

     total energy              =    -303.31842094 Ry
     Harris-Foulkes estimate   =    -303.31889906 Ry
     estimated scf accuracy    <       0.00156840 Ry

     iteration #  3     ecut=   100.00 Ry     beta=0.60
     Davidson diagonalization with overlap
     ethr =  9.16E-07,  avg # of iterations =  3.2

     total cpu time spent up to now is       36.4 secs

     total energy              =    -303.31855440 Ry
     Harris-Foulkes estimate   =    -303.31859350 Ry
     estimated scf accuracy    <       0.00018627 Ry

     iteration #  4     ecut=   100.00 Ry     beta=0.60
     Davidson diagonalization with overlap
     ethr =  4.66E-07,  avg # of iterations =  2.0

     total cpu time spent up to now is       36.8 secs

     total energy              =    -303.31851917 Ry
     Harris-Foulkes estimate   =    -303.31856538 Ry
     estimated scf accuracy    <       0.00009704 Ry

     iteration #  5     ecut=   100.00 Ry     beta=0.60
     Davidson diagonalization with overlap
     ethr =  2.43E-07,  avg # of iterations =  2.1

     total cpu time spent up to now is       37.2 secs

     total energy              =    -303.31853590 Ry
     Harris-Foulkes estimate   =    -303.31853657 Ry
     estimated scf accuracy    <       0.00000265 Ry

     iteration #  6     ecut=   100.00 Ry     beta=0.60
     Davidson diagonalization with overlap
     ethr =  6.61E-09,  avg # of iterations =  3.6

     total cpu time spent up to now is       37.7 secs

     total energy              =    -303.31853691 Ry
     Harris-Foulkes estimate   =    -303.31853698 Ry
     estimated scf accuracy    <       0.00000020 Ry

     iteration #  7     ecut=   100.00 Ry     beta=0.60
     Davidson diagonalization with overlap
     ethr =  5.12E-10,  avg # of iterations =  3.1

     total cpu time spent up to now is       38.1 secs

     total energy              =    -303.31853696 Ry
     Harris-Foulkes estimate   =    -303.31853699 Ry
     estimated scf accuracy    <       0.00000010 Ry

     iteration #  8     ecut=   100.00 Ry     beta=0.60
     Davidson diagonalization with overlap
     ethr =  2.53E-10,  avg # of iterations =  2.2

     total cpu time spent up to now is       38.5 secs

     total energy              =    -303.31853697 Ry
     Harris-Foulkes estimate   =    -303.31853697 Ry
     estimated scf accuracy    <       0.00000001 Ry

     iteration #  9     ecut=   100.00 Ry     beta=0.60
     Davidson diagonalization with overlap
     ethr =  3.13E-11,  avg # of iterations =  3.2

     total cpu time spent up to now is       38.9 secs

     total energy              =    -303.31853697 Ry
     Harris-Foulkes estimate   =    -303.31853697 Ry
     estimated scf accuracy    <          8.6E-10 Ry

     iteration # 10     ecut=   100.00 Ry     beta=0.60
     Davidson diagonalization with overlap
     ethr =  2.16E-12,  avg # of iterations =  2.4

     total cpu time spent up to now is       39.4 secs

          k = 0.0814 0.0820 0.0820     band energies (ev):

   -46.0875 -22.3569 -22.3257 -22.3254 -14.1343  -6.4347  -5.7926  -5.7393
     0.6513   0.6538   0.7763   7.8051   7.9871   7.9985   8.7721   8.7931
     9.1694   9.6537  10.0231  10.0307  12.5205  12.6362  12.6614  14.8247

          k = 0.0814 0.0820 0.2459     band energies (ev):

   -46.0871 -22.3559 -22.3496 -22.3246 -14.0811  -6.4827  -5.7669  -5.6656
     0.6984   0.7046   0.9423   7.1467   7.7644   7.8633   8.3701   8.4242
     9.0589   9.1092   9.6923   9.8016  12.6752  13.2367  13.2661  14.8594

          k = 0.0814 0.0820 0.4098     band energies (ev):

   -46.0866 -22.3735 -22.3549 -22.3236 -14.0265  -6.5998  -5.7505  -5.4945
     0.7508   0.8465   1.0063   6.4715   7.5933   7.6743   7.8754   8.1973
     8.9516   9.0213   9.3068   9.5585  12.7144  13.8930  13.9210  14.8450

          k = 0.0814 0.2459 0.2459     band energies (ev):

   -46.0866 -22.3550 -22.3487 -22.3480 -14.0361  -6.3985  -5.7066  -5.6951
     0.6024   0.7153   1.0293   6.8638   7.3568   7.6260   7.9384   8.2333
     8.5915   9.3252   9.4748   9.8914  13.2114  13.3707  13.5839  15.3017

          k = 0.0814 0.2459 0.4098     band energies (ev):

   -46.0861 -22.3720 -22.3540 -22.3471 -13.9902  -6.3926  -5.7002  -5.5789
     0.6144   0.7548   0.9696   6.3924   7.0587   7.2445   7.7100   8.0530
     8.7032   9.1624   9.3313   9.9053  13.3207  13.9465  14.0613  15.3551

          k = 0.0814 0.4098 0.4098     band energies (ev):

   -46.0856 -22.3706 -22.3704 -22.3531 -13.9531  -6.1779  -5.6703  -5.6409
     0.5453   0.5979   0.9587   6.2132   6.6347   6.6583   7.7548   7.8151
     8.5217   9.3318   9.4596  10.2644  13.9497  13.9951  14.3527  15.4577

          k = 0.2443 0.2459 0.2459     band energies (ev):

   -46.0862 -22.3770 -22.3476 -22.3470 -13.9987  -6.2357  -5.7202  -5.6646
     0.4731   0.4921   1.0776   6.6704   7.2812   7.3261   7.8724   8.0449
     8.0706   9.6079   9.6413   9.7274  13.6344  13.6864  13.7026  16.4732

          k = 0.2443 0.2459 0.4098     band energies (ev):

   -46.0857 -22.3758 -22.3707 -22.3462 -13.9583  -6.1663  -5.6617  -5.5904
     0.3580   0.4798   0.8677   6.3584   7.0368   7.2738   7.3926   7.9923
     8.1812   9.4470   9.7431   9.8361  13.7594  14.1243  14.1669  16.4077

          k = 0.2443 0.4098 0.4098     band energies (ev):

   -46.0852 -22.3748 -22.3694 -22.3693 -13.9237  -5.9479  -5.5997  -5.5930
     0.2458   0.2594   0.5732   6.1983   6.6629   7.2086   7.3854   7.9637
     8.0226   9.6609   9.7452  10.2396  14.2271  14.2436  14.4434  16.6433

          k = 0.4072 0.4098 0.4098     band energies (ev):

   -46.0848 -22.3963 -22.3683 -22.3682 -13.8939  -5.6808  -5.5672  -5.5253
    -0.0121   0.0122   0.1524   6.0502   6.6601   6.6690   7.7949   8.0367
     8.0380  10.0846  10.1174  10.2192  14.5328  14.5361  14.5491  17.3636

          k = 0.2443-0.0820 0.0820     band energies (ev):

   -46.0871 -22.3794 -22.3247 -22.3245 -14.0836  -6.4639  -5.7348  -5.7259
     0.6981   0.7078   0.9447   7.1271   7.7579   7.8591   8.3833   8.4035
     9.0934   9.1517   9.7596   9.7976  12.5621  13.2896  13.3028  14.8222

          k = 0.4072-0.0820 0.0820     band energies (ev):

   -46.0867 -22.4016 -22.3238 -22.3236 -14.0316  -6.5719  -5.7123  -5.5803
     0.7432   0.8458   1.0250   6.4410   7.5694   7.6729   7.9076   8.2152
     8.9205   9.0459   9.4739   9.6034  12.6003  13.9016  13.9217  14.8184

          k = 0.2443-0.2459 0.0820     band energies (ev):

   -46.0866 -22.3781 -22.3484 -22.3237 -14.0384  -6.3773  -5.7628  -5.6720
     0.6154   0.7155   1.0327   6.8644   7.2960   7.6377   7.9310   8.2126
     8.7592   9.3355   9.4513   9.8411  13.2362  13.3702  13.5901  15.3089

          k = 0.4072-0.2459 0.0820     band energies (ev):

   -46.0862 -22.4002 -22.3473 -22.3228 -13.9948  -6.3556  -5.6905  -5.6499
     0.6178   0.7780   0.9754   6.3771   6.9655   7.3138   7.7112   8.0403
     8.8520   9.1740   9.3850   9.8312  13.3081  13.9407  14.0489  15.3910

          k = 0.2443 0.4098 0.0820     band energies (ev):

   -46.0862 -22.3769 -22.3720 -22.3228 -13.9922  -6.3794  -5.7294  -5.5771
     0.6321   0.7584   0.9766   6.3954   7.0202   7.2404   7.6839   8.0829
     8.7803   9.1777   9.3440   9.8335  13.3631  13.9254  14.0702  15.4009

          k = 0.4072-0.4098 0.0820     band energies (ev):

   -46.0857 -22.3987 -22.3707 -22.3219 -13.9573  -6.1293  -5.7419  -5.6468
     0.5686   0.6255   0.9599   6.2199   6.5626   6.7007   7.7030   7.8360
     8.5654   9.3968   9.5335  10.1722  13.9434  13.9780  14.3417  15.5648

          k = 0.4072-0.2459 0.2459     band energies (ev):

   -46.0857 -22.3988 -22.3465 -22.3460 -13.9606  -6.1327  -5.6768  -5.6215
     0.3438   0.5089   0.8678   6.3516   6.9764   7.3044   7.3958   8.0160
     8.2248   9.5242   9.7550   9.7668  13.7477  14.1109  14.1532  16.4366

          k = 0.4072-0.4098 0.2459     band energies (ev):

   -46.0853 -22.3975 -22.3695 -22.3452 -13.9258  -5.9009  -5.6691  -5.5858
     0.2446   0.2887   0.5682   6.2034   6.6532   7.1983   7.3822   7.9630
     8.0398   9.7116   9.8217  10.1452  14.2088  14.2296  14.4369  16.7611

     highest occupied, lowest unoccupied level (ev):    10.2644   12.5205

!    total energy              =    -303.31853697 Ry
     Harris-Foulkes estimate   =    -303.31853697 Ry
[...]
     total energy              =    -303.31838564 Ry
     Harris-Foulkes estimate   =    -303.36253432 Ry
     estimated scf accuracy    <       0.16928775 Ry

     iteration #  4     ecut=   100.00 Ry     beta=0.60
     Davidson diagonalization with overlap
     ethr =  4.23E-04,  avg # of iterations =  1.3

     total cpu time spent up to now is      110.1 secs

     total energy              =    -303.30902052 Ry
     Harris-Foulkes estimate   =    -303.32704930 Ry
     estimated scf accuracy    <       0.06034864 Ry

     iteration #  5     ecut=   100.00 Ry     beta=0.60
     Davidson diagonalization with overlap
     ethr =  1.51E-04,  avg # of iterations =  3.1

     total cpu time spent up to now is      110.5 secs

     total energy              =    -303.31908972 Ry
     Harris-Foulkes estimate   =    -303.31981819 Ry
     estimated scf accuracy    <       0.00207386 Ry

     iteration #  6     ecut=   100.00 Ry     beta=0.60
     Davidson diagonalization with overlap
     ethr =  5.18E-06,  avg # of iterations =  3.8

     total cpu time spent up to now is      111.1 secs

     total energy              =    -303.31968756 Ry
     Harris-Foulkes estimate   =    -303.31979643 Ry
     estimated scf accuracy    <       0.00056975 Ry

     iteration #  7     ecut=   100.00 Ry     beta=0.60
     Davidson diagonalization with overlap
     ethr =  1.42E-06,  avg # of iterations =  1.7

     total cpu time spent up to now is      111.5 secs

     total energy              =    -303.31965407 Ry
     Harris-Foulkes estimate   =    -303.31972516 Ry
     estimated scf accuracy    <       0.00018962 Ry

     iteration #  8     ecut=   100.00 Ry     beta=0.60
     Davidson diagonalization with overlap
     ethr =  4.74E-07,  avg # of iterations =  2.7

     total cpu time spent up to now is      111.9 secs

     total energy              =    -303.31969255 Ry
     Harris-Foulkes estimate   =    -303.31969312 Ry
     estimated scf accuracy    <       0.00000421 Ry

     iteration #  9     ecut=   100.00 Ry     beta=0.60
     Davidson diagonalization with overlap
     ethr =  1.05E-08,  avg # of iterations =  3.2

     total cpu time spent up to now is      112.4 secs

     total energy              =    -303.31969313 Ry
     Harris-Foulkes estimate   =    -303.31969401 Ry
     estimated scf accuracy    <       0.00000206 Ry

     iteration # 10     ecut=   100.00 Ry     beta=0.60
     Davidson diagonalization with overlap
     ethr =  5.16E-09,  avg # of iterations =  2.7

     total cpu time spent up to now is      112.8 secs

          k = 0.0799 0.0824 0.0824     band energies (ev):

   -46.1209 -22.4466 -22.3587 -22.3585 -14.3074  -6.5517  -5.9404  -5.8421
     0.4801   0.4976   0.6119   7.6734   7.8263   7.8666   8.5057   8.5273
     8.9664   9.3349   9.7789   9.8399  12.5023  12.8202  12.8374  14.8935

          k = 0.0799 0.0824 0.2471     band energies (ev):

   -46.1204 -22.4456 -22.3839 -22.3575 -14.2533  -6.5944  -5.9076  -5.7760
     0.5164   0.5448   0.7653   7.0278   7.6066   7.7454   8.1543   8.2340
     8.7677   8.9180   9.5043   9.5891  12.8362  13.2151  13.2546  14.9293

          k = 0.0799 0.0824 0.4118     band energies (ev):

   -46.1199 -22.4445 -22.4090 -22.3565 -14.1979  -6.7091  -5.8819  -5.6130
     0.5714   0.6769   0.8105   6.3672   7.4636   7.5660   7.7079   8.0515
     8.6988   8.7659   9.1173   9.3253  12.8782  13.8485  13.9013  14.8897

          k = 0.0799 0.2471 0.2471     band energies (ev):

   -46.1199 -22.4445 -22.3830 -22.3822 -14.2074  -6.5123  -5.8332  -5.8083
     0.4148   0.5326   0.8425   6.7463   7.2235   7.4983   7.7932   8.0331
     8.2519   9.1638   9.3347   9.8086  13.1474  13.3762  13.5790  15.2405

          k = 0.0799 0.2471 0.4118     band energies (ev):

   -46.1194 -22.4435 -22.4074 -22.3813 -14.1604  -6.5060  -5.8198  -5.6909
     0.4205   0.5526   0.7728   6.2803   6.9296   7.1374   7.5492   7.8552
     8.4097   9.0102   9.2215   9.8276  13.2779  13.9223  14.0448  15.2059

          k = 0.0799 0.4118 0.4118     band energies (ev):

   -46.1188 -22.4425 -22.4060 -22.4058 -14.1222  -6.2989  -5.7714  -5.7503
     0.3291   0.3841   0.7512   6.0857   6.5176   6.5804   7.5560   7.6049
     8.3554   9.2052   9.3286  10.1980  13.8976  13.9832  14.3423  15.1371

          k = 0.2396 0.2471 0.2471     band energies (ev):

   -46.1195 -22.4619 -22.3820 -22.3814 -14.1767  -6.3626  -5.8770  -5.7719
     0.2940   0.3463   0.8903   6.5649   7.1204   7.1963   7.7715   7.9031
     7.9359   9.4108   9.4279   9.6592  13.5534  13.6354  13.6945  16.2755

          k = 0.2396 0.2471 0.4118     band energies (ev):

   -46.1190 -22.4607 -22.4064 -22.3805 -14.1346  -6.3033  -5.8044  -5.7010
     0.2015   0.2994   0.6904   6.2420   6.9201   7.1412   7.3257   7.8325
     8.0105   9.2748   9.5266   9.7618  13.6936  14.0716  14.1308  16.2224

          k = 0.2396 0.4118 0.4118     band energies (ev):

   -46.1185 -22.4595 -22.4051 -22.4050 -14.0985  -6.1026  -5.7146  -5.7099
     0.0718   0.0769   0.4120   6.0635   6.5860   7.0618   7.3197   7.7937
     7.8559   9.4726   9.5639  10.1735  14.1594  14.1869  14.4137  16.2268

          k = 0.3993 0.4118 0.4118     band energies (ev):

   -46.1182 -22.4765 -22.4042 -22.4041 -14.0745  -5.8750  -5.6998  -5.6453
    -0.1729  -0.1314   0.0399   5.9485   6.5922   6.6560   7.6413   7.8748
     7.9091   9.8495   9.8941  10.1469  14.4201  14.4230  14.4987  16.9045

          k = 0.2396-0.0824 0.0824     band energies (ev):

   -46.1206 -22.4645 -22.3579 -22.3578 -14.2645  -6.5829  -5.9024  -5.8309
     0.5312   0.5509   0.7681   7.0105   7.6161   7.7225   8.1762   8.2243
     8.9024   9.0034   9.5750   9.6897  12.5396  13.3276  13.3577  14.8875

          k = 0.3993-0.0824 0.0824     band energies (ev):

   -46.1202 -22.4822 -22.3572 -22.3570 -14.2207  -6.6785  -5.8195  -5.7859
     0.5652   0.6713   0.8692   6.3784   7.4286   7.5612   7.7992   8.0511
     8.7561   8.8815   9.3875   9.5587  12.5744  13.8300  13.8738  14.8849

          k = 0.2396-0.2471 0.0824     band energies (ev):

   -46.1201 -22.4632 -22.3829 -22.3569 -14.2179  -6.4973  -5.9273  -5.7801
     0.4556   0.5519   0.8509   6.7803   7.0933   7.5488   7.8121   8.0378
     8.6244   9.1224   9.3178   9.6511  13.2171  13.4026  13.5399  15.3619

          k = 0.3993-0.2471 0.0824     band energies (ev):

   -46.1197 -22.4807 -22.3819 -22.3562 -14.1817  -6.4651  -5.8819  -5.7743
     0.4449   0.6291   0.8054   6.3389   6.7817   7.2930   7.5994   7.8738
     8.7543   9.0151   9.3102   9.6224  13.2777  13.8743  13.9404  15.4366

          k = 0.2396 0.4118 0.0824     band energies (ev):

   -46.1195 -22.4618 -22.4078 -22.3559 -14.1701  -6.5071  -5.8852  -5.6877
     0.4770   0.5776   0.8059   6.2974   6.8796   7.1847   7.5490   7.9601
     8.5427   9.0322   9.1634   9.6256  13.4038  13.8860  14.0176  15.4392

          k = 0.3993-0.4118 0.0824     band energies (ev):

   -46.1192 -22.4790 -22.4066 -22.3552 -14.1419  -6.2584  -5.9380  -5.7529
     0.3994   0.4860   0.7922   6.1649   6.4423   6.7004   7.5065   7.7537
     8.4601   9.2311   9.3781   9.9432  13.8979  13.9332  14.2278  15.5894

          k = 0.3993-0.2471 0.2471     band energies (ev):

   -46.1192 -22.4792 -22.3811 -22.3806 -14.1455  -6.2461  -5.8817  -5.7346
     0.1741   0.3721   0.7069   6.3233   6.7733   7.1818   7.3789   7.9031
     8.0993   9.4803   9.5382   9.5735  13.7008  13.9877  14.0538  16.4371

          k = 0.3993-0.4118 0.2471     band energies (ev):

   -46.1187 -22.4778 -22.4054 -22.3798 -14.1085  -6.0447  -5.8504  -5.6989
     0.0771   0.1511   0.4292   6.1223   6.6239   7.0663   7.2709   7.8285
     7.9271   9.5266   9.7343   9.9091  14.0939  14.1775  14.3300  16.6638

     highest occupied, lowest unoccupied level (ev):    10.1980   12.5023

!    total energy              =    -303.31969349 Ry
     Harris-Foulkes estimate   =    -303.31969349 Ry
     estimated scf accuracy    <          9.6E-09 Ry

     The total energy is the sum of the following terms:

     one-electron contribution =     -72.72645698 Ry
     hartree contribution      =      60.27356994 Ry
     xc contribution           =     -84.18290059 Ry
     ewald contribution        =    -206.68359122 Ry
     scf correction            =      -0.00031464 Ry

     iteration # 11     ecut=   100.00 Ry     beta=0.60
     Davidson diagonalization with overlap
     ethr =  2.41E-11,  avg # of iterations =  3.9

     total cpu time spent up to now is      113.5 secs

     total energy              =    -303.31969351 Ry
     Harris-Foulkes estimate   =    -303.31969351 Ry
     estimated scf accuracy    <          1.4E-09 Ry

     iteration # 12     ecut=   100.00 Ry     beta=0.60
     Davidson diagonalization with overlap
     ethr =  3.52E-12,  avg # of iterations =  2.2

     total cpu time spent up to now is      113.9 secs

     total energy              =    -303.31969351 Ry
     Harris-Foulkes estimate   =    -303.31969351 Ry
     estimated scf accuracy    <          1.0E-10 Ry

     iteration # 13     ecut=   100.00 Ry     beta=0.60
     Davidson diagonalization with overlap
     ethr =  2.54E-13,  avg # of iterations =  2.4

     total cpu time spent up to now is      114.4 secs

     total energy              =    -303.31969351 Ry
     Harris-Foulkes estimate   =    -303.31969351 Ry
     estimated scf accuracy    <          5.7E-12 Ry

     iteration # 14     ecut=   100.00 Ry     beta=0.60
     Davidson diagonalization with overlap
     ethr =  1.00E-13,  avg # of iterations =  1.2

     total cpu time spent up to now is      114.7 secs

     total energy              =    -303.31969351 Ry
     Harris-Foulkes estimate   =    -303.31969351 Ry
     estimated scf accuracy    <          1.5E-13 Ry

     iteration # 15     ecut=   100.00 Ry     beta=0.60
     Davidson diagonalization with overlap
     ethr =  1.00E-13,  avg # of iterations =  1.0

     total cpu time spent up to now is      115.1 secs

     total energy              =    -303.31969351 Ry
     Harris-Foulkes estimate   =    -303.31969351 Ry
     estimated scf accuracy    <          1.5E-14 Ry

     iteration # 16     ecut=   100.00 Ry     beta=0.60
     Davidson diagonalization with overlap
     ethr =  1.00E-13,  avg # of iterations =  1.0

     total cpu time spent up to now is      115.5 secs

     total energy              =    -303.31969351 Ry
     Harris-Foulkes estimate   =    -303.31969351 Ry
     estimated scf accuracy    <          2.4E-14 Ry

     iteration # 17     ecut=   100.00 Ry     beta=0.60
     Davidson diagonalization with overlap
     ethr =  1.00E-13,  avg # of iterations =  1.0

     total cpu time spent up to now is      115.8 secs

     End of self-consistent calculation

          k = 0.0799 0.0824 0.0824 (  7278 PWs)   bands (ev):

   -46.1207 -22.4465 -22.3585 -22.3583 -14.3073  -6.5518  -5.9405  -5.8422
     0.4802   0.4976   0.6119   7.6733   7.8263   7.8666   8.5056   8.5272
     8.9663   9.3349   9.7789   9.8398  12.5023  12.8203  12.8375  14.8936

          k = 0.0799 0.0824 0.2471 (  7294 PWs)   bands (ev):

   -46.1202 -22.4454 -22.3837 -22.3574 -14.2533  -6.5945  -5.9077  -5.7761
     0.5165   0.5448   0.7653   7.0278   7.6066   7.7453   8.1542   8.2339
     8.7676   8.9179   9.5043   9.5891  12.8362  13.2152  13.2547  14.9293

          k = 0.0799 0.0824 0.4118 (  7310 PWs)   bands (ev):

   -46.1197 -22.4443 -22.4088 -22.3564 -14.1978  -6.7092  -5.8820  -5.6131
     0.5715   0.6769   0.8106   6.3672   7.4635   7.5659   7.7079   8.0515
     8.6987   8.7658   9.1172   9.3253  12.8782  13.8486  13.9014  14.8898

          k = 0.0799 0.2471 0.2471 (  7316 PWs)   bands (ev):

   -46.1197 -22.4444 -22.3828 -22.3821 -14.2074  -6.5123  -5.8333  -5.8084
     0.4148   0.5327   0.8426   6.7463   7.2234   7.4982   7.7932   8.0330
     8.2519   9.1637   9.3346   9.8085  13.1475  13.3762  13.5791  15.2406

          k = 0.0799 0.2471 0.4118 (  7330 PWs)   bands (ev):

   -46.1192 -22.4434 -22.4073 -22.3812 -14.1604  -6.5061  -5.8199  -5.6910
     0.4206   0.5526   0.7729   6.2803   6.9295   7.1374   7.5492   7.8551
     8.4096   9.0101   9.2215   9.8275  13.2780  13.9224  14.0449  15.2060

          k = 0.0799 0.4118 0.4118 (  7327 PWs)   bands (ev):

   -46.1187 -22.4424 -22.4059 -22.4057 -14.1222  -6.2989  -5.7715  -5.7504
     0.3291   0.3842   0.7513   6.0857   6.5176   6.5804   7.5559   7.6048
     8.3554   9.2051   9.3285  10.1979  13.8977  13.9833  14.3424  15.1372

          k = 0.2396 0.2471 0.2471 (  7308 PWs)   bands (ev):

   -46.1194 -22.4618 -22.3819 -22.3813 -14.1766  -6.3627  -5.8771  -5.7720
     0.2941   0.3464   0.8904   6.5649   7.1203   7.1963   7.7714   7.9031
     7.9358   9.4107   9.4279   9.6591  13.5535  13.6354  13.6946  16.2756

          k = 0.2396 0.2471 0.4118 (  7314 PWs)   bands (ev):

   -46.1189 -22.4606 -22.4063 -22.3804 -14.1346  -6.3034  -5.8045  -5.7010
     0.2015   0.2994   0.6905   6.2420   6.9201   7.1412   7.3257   7.8324
     8.0104   9.2747   9.5265   9.7616  13.6936  14.0717  14.1309  16.2225

          k = 0.2396 0.4118 0.4118 (  7323 PWs)   bands (ev):

   -46.1184 -22.4594 -22.4050 -22.4048 -14.0984  -6.1027  -5.7147  -5.7100
     0.0718   0.0770   0.4121   6.0634   6.5860   7.0617   7.3197   7.7937
     7.8558   9.4725   9.5638  10.1734  14.1594  14.1870  14.4138  16.2269

          k = 0.3993 0.4118 0.4118 (  7306 PWs)   bands (ev):

   -46.1181 -22.4764 -22.4040 -22.4039 -14.0744  -5.8751  -5.6999  -5.6454
    -0.1728  -0.1313   0.0399   5.9485   6.5922   6.6560   7.6412   7.8748
     7.9091   9.8494   9.8940  10.1468  14.4202  14.4230  14.4988  16.9045

          k = 0.2396-0.0824 0.0824 (  7290 PWs)   bands (ev):

   -46.1204 -22.4644 -22.3578 -22.3576 -14.2644  -6.5830  -5.9024  -5.8310
     0.5313   0.5510   0.7681   7.0105   7.6161   7.7224   8.1761   8.2243
     8.9024   9.0034   9.5749   9.6896  12.5397  13.3277  13.3577  14.8876

          k = 0.3993-0.0824 0.0824 (  7296 PWs)   bands (ev):

   -46.1201 -22.4821 -22.3570 -22.3569 -14.2207  -6.6786  -5.8196  -5.7859
     0.5652   0.6713   0.8693   6.3784   7.4286   7.5611   7.7991   8.0510
     8.7560   8.8814   9.3874   9.5586  12.5745  13.8300  13.8739  14.8850

          k = 0.2396-0.2471 0.0824 (  7299 PWs)   bands (ev):

   -46.1199 -22.4630 -22.3828 -22.3567 -14.2178  -6.4974  -5.9274  -5.7802
     0.4557   0.5520   0.8510   6.7803   7.0932   7.5488   7.8121   8.0377
     8.6243   9.1223   9.3178   9.6510  13.2172  13.4027  13.5400  15.3620

          k = 0.3993-0.2471 0.0824 (  7307 PWs)   bands (ev):

   -46.1196 -22.4805 -22.3818 -22.3560 -14.1817  -6.4652  -5.8820  -5.7744
     0.4450   0.6292   0.8054   6.3389   6.7817   7.2930   7.5994   7.8737
     8.7542   9.0151   9.3101   9.6223  13.2778  13.8743  13.9404  15.4367

          k = 0.2396 0.4118 0.0824 (  7308 PWs)   bands (ev):

   -46.1194 -22.4617 -22.4076 -22.3557 -14.1701  -6.5072  -5.8853  -5.6878
     0.4770   0.5776   0.8060   6.2974   6.8796   7.1847   7.5489   7.9600
     8.5427   9.0321   9.1633   9.6255  13.4038  13.8861  14.0177  15.4393

          k = 0.3993-0.4118 0.0824 (  7302 PWs)   bands (ev):

   -46.1191 -22.4789 -22.4065 -22.3551 -14.1419  -6.2585  -5.9381  -5.7530
     0.3994   0.4860   0.7922   6.1649   6.4423   6.7004   7.5064   7.7536
     8.4601   9.2310   9.3780   9.9431  13.8979  13.9333  14.2279  15.5895

          k = 0.3993-0.2471 0.2471 (  7317 PWs)   bands (ev):

   -46.1191 -22.4791 -22.3810 -22.3805 -14.1454  -6.2462  -5.8818  -5.7347
     0.1741   0.3722   0.7069   6.3233   6.7733   7.1818   7.3788   7.9031
     8.0992   9.4802   9.5381   9.5734  13.7009  13.9877  14.0539  16.4371

          k = 0.3993-0.4118 0.2471 (  7316 PWs)   bands (ev):

   -46.1186 -22.4777 -22.4052 -22.3796 -14.1084  -6.0447  -5.8505  -5.6990
     0.0771   0.1512   0.4293   6.1223   6.6239   7.0662   7.2709   7.8284
     7.9270   9.5265   9.7341   9.9090  14.0940  14.1776  14.3301  16.6638

     highest occupied, lowest unoccupied level (ev):    10.1979   12.5023

!    total energy              =    -303.31969351 Ry
     Harris-Foulkes estimate   =    -303.31969351 Ry
     estimated scf accuracy    <          1.6E-15 Ry

     The total energy is the sum of the following terms:

     one-electron contribution =     -72.72689753 Ry
     hartree contribution      =      60.27369502 Ry
     xc contribution           =     -84.18289978 Ry
     ewald contribution        =    -206.68359122 Ry

     convergence has been achieved in  17 iterations

     Forces acting on atoms (cartesian axes, Ry/au):

     atom    1 type  3   force =    -0.00027216    0.00000000    0.00000000
     atom    2 type  2   force =     0.00031513    0.00000000    0.00000000
     atom    3 type  1   force =    -0.00073619    0.00000000    0.00000000
     atom    4 type  1   force =     0.00034661    0.00000000    0.00000000
     atom    5 type  1   force =     0.00034661    0.00000000    0.00000000

     Total force =     0.000978     Total SCF correction =     0.000000


     Computing stress (Cartesian axis) and pressure

          total   stress  (Ry/bohr**3)                   (kbar)     P=   -0.11
   0.00000126   0.00000000   0.00000000          0.19      0.00      0.00
   0.00000000  -0.00000179   0.00000000          0.00     -0.26      0.00
   0.00000000   0.00000000  -0.00000179          0.00      0.00     -0.26


     Writing output data file bto.save
 
     init_run     :      1.11s CPU      1.71s WALL (       2 calls)
     electrons    :     87.62s CPU     90.35s WALL (      14 calls)
     update_pot   :      5.11s CPU      6.04s WALL (      12 calls)
     forces       :      3.59s CPU      3.60s WALL (      14 calls)
     stress       :      7.66s CPU      7.70s WALL (      14 calls)

     Called by init_run:
     wfcinit      :      0.28s CPU      0.61s WALL (       2 calls)
     potinit      :      0.21s CPU      0.24s WALL (       2 calls)

     Called by electrons:
     c_bands      :     61.56s CPU     63.08s WALL (     197 calls)
     sum_band     :     16.99s CPU     17.26s WALL (     197 calls)
     v_of_rho     :      1.62s CPU      1.66s WALL (     209 calls)
     newd         :      7.32s CPU      7.35s WALL (     209 calls)
     mix_rho      :      0.26s CPU      0.27s WALL (     197 calls)

     Called by c_bands:
     init_us_2    :      0.86s CPU      0.87s WALL (    7632 calls)
     cegterg      :     57.65s CPU     59.05s WALL (    3546 calls)

     Called by sum_band:
     sum_band:bec :      0.02s CPU      0.05s WALL (    3546 calls)
     addusdens    :      8.51s CPU      8.55s WALL (     197 calls)

     Called by *egterg:
     h_psi        :     35.55s CPU     36.64s WALL (   12995 calls)
     s_psi        :      1.14s CPU      1.07s WALL (   12995 calls)
     g_psi        :      0.17s CPU      0.20s WALL (    9413 calls)
     cdiaghg      :     12.67s CPU     13.10s WALL (   12707 calls)

     Called by h_psi:
     h_psi:pot    :     35.49s CPU     36.46s WALL (   12995 calls)
     h_psi:calbec :      2.12s CPU      2.08s WALL (   12995 calls)
     vloc_psi     :     32.30s CPU     33.23s WALL (   12995 calls)
     add_vuspsi   :      1.06s CPU      1.12s WALL (   12995 calls)

     General routines
     calbec       :      3.06s CPU      2.98s WALL (   17801 calls)
     fft          :      1.84s CPU      2.01s WALL (    3658 calls)
     ffts         :      0.05s CPU      0.05s WALL (     406 calls)
     fftw         :     35.17s CPU     35.06s WALL (  528730 calls)
     interpolate  :      0.22s CPU      0.23s WALL (     406 calls)
     davcio       :      0.00s CPU      0.12s WALL (      36 calls)
 
     Parallel routines
     fft_scatter  :     21.24s CPU     19.81s WALL (  532794 calls)
 
     PWSCF        :  1m46.38s CPU     1m56.62s WALL

 
   This run was terminated on:  12:48:48   5Jan2018            

=------------------------------------------------------------------------------=
   JOB DONE.
=------------------------------------------------------------------------------=
