
     Program PWSCF v.6.1 (svn rev. 13369) starts on 31Dec2017 at 11:14:40 

     This program is part of the open-source Quantum ESPRESSO suite
     for quantum simulation of materials; please cite
         "P. Giannozzi et al., J. Phys.:Condens. Matter 21 395502 (2009);
          URL http://www.quantum-espresso.org", 
     in publications or presentations arising from this work. More details at
     http://www.quantum-espresso.org/quote

     Parallel version (MPI), running on    28 processors
     R & G space division:  proc/nbgrp/npool/nimage =      28
     Waiting for input...
     Reading input from standard input

     Current dimensions of program PWSCF are:
     Max number of different atomic species (ntypx) = 10
     Max number of k-points (npk) =  40000
     Max angular momentum in pseudopotentials (lmaxx) =  3
               file O.pbe-rrkjus.UPF: wavefunction(s)  2S renormalized

     Subspace diagonalization in iterative solution of the eigenvalue problem:
     a serial algorithm will be used

 
     Parallelization info
     --------------------
     sticks:   dense  smooth     PW     G-vecs:    dense   smooth      PW
     Min          74      37     10                 2570      907     138
     Max          75      38     11                 2573      912     143
     Sum        2085    1041    293                71999    25413    3911
 

     Title: 
     cubic BaTiO3 at 7.40 lattice parameter. xc=PBE                             


     bravais-lattice index     =            1
     lattice parameter (alat)  =       7.4000  a.u.
     unit-cell volume          =     405.2240 (a.u.)^3
     number of atoms/cell      =            5
     number of atomic types    =            3
     number of electrons       =        40.00
     number of Kohn-Sham states=           24
     kinetic-energy cutoff     =      60.0000  Ry
     charge density cutoff     =     480.0000  Ry
     convergence threshold     =      1.0E-12
     mixing beta               =       0.6000
     number of iterations used =            8  plain     mixing
     Exchange-correlation      =  SLA  PW   PBE  PBE ( 1  4  3  4 0 0)

     celldm(1)=   7.400000  celldm(2)=   0.000000  celldm(3)=   0.000000
     celldm(4)=   0.000000  celldm(5)=   0.000000  celldm(6)=   0.000000

     crystal axes: (cart. coord. in units of alat)
               a(1) = (   1.000000   0.000000   0.000000 )  
               a(2) = (   0.000000   1.000000   0.000000 )  
               a(3) = (   0.000000   0.000000   1.000000 )  

     reciprocal axes: (cart. coord. in units 2 pi/alat)
               b(1) = (  1.000000  0.000000  0.000000 )  
               b(2) = (  0.000000  1.000000  0.000000 )  
               b(3) = (  0.000000  0.000000  1.000000 )  


     PseudoPot. # 1 for O  read from file:
     ../../PSP_DIR/O.pbe-rrkjus.UPF
     MD5 check sum: 390ba29e75625707450f3bd3f0eb6be9
     Pseudo is Ultrasoft, Zval =  6.0
     Generated by new atomic code, or converted to UPF format
     Using radial grid of 1269 points,  4 beta functions with: 
                l(1) =   0
                l(2) =   0
                l(3) =   1
                l(4) =   1
     Q(r) pseudized with 0 coefficients 


     PseudoPot. # 2 for Ti read from file:
     ../../PSP_DIR/Ti.pbe-sp-van_ak.UPF
     MD5 check sum: 8e4df49b7f0d34bbd5052bf3f5ea0213
     Pseudo is Ultrasoft, Zval = 12.0
     Generated by new atomic code, or converted to UPF format
     Using radial grid of  851 points,  6 beta functions with: 
                l(1) =   0
                l(2) =   0
                l(3) =   1
                l(4) =   1
                l(5) =   2
                l(6) =   2
     Q(r) pseudized with  8 coefficients,  rinner =    1.000   1.000   1.000
                                                       1.000   1.000

     PseudoPot. # 3 for Ba read from file:
     ../../PSP_DIR/Ba.pbe-nsp-van.UPF
     MD5 check sum: a011de417d3466d8e94df216395bc359
     Pseudo is Ultrasoft + core correction, Zval = 10.0
     Generated by new atomic code, or converted to UPF format
     Using radial grid of  907 points,  6 beta functions with: 
                l(1) =   0
                l(2) =   0
                l(3) =   1
                l(4) =   1
                l(5) =   2
                l(6) =   2
     Q(r) pseudized with  6 coefficients,  rinner =    1.200   1.200   1.200
                                                       1.200   1.200

     atomic species   valence    mass     pseudopotential
        O              6.00    15.99000     O ( 1.00)
        Ti            12.00    47.88000     Ti( 1.00)
        Ba            10.00   137.33000     Ba( 1.00)

     48 Sym. Ops., with inversion, found



   Cartesian axes

     site n.     atom                  positions (alat units)
         1           Ba  tau(   1) = (   0.0000000   0.0000000   0.0000000  )
         2           Ti  tau(   2) = (   0.5000000   0.5000000   0.5000000  )
         3           O   tau(   3) = (   0.0000000   0.5000000   0.5000000  )
         4           O   tau(   4) = (   0.5000000   0.0000000   0.5000000  )
         5           O   tau(   5) = (   0.5000000   0.5000000   0.0000000  )

     number of k points=    10
                       cart. coord. in units 2pi/alat
        k(    1) = (   0.0833333   0.0833333   0.0833333), wk =   0.0740741
        k(    2) = (   0.0833333   0.0833333   0.2500000), wk =   0.2222222
        k(    3) = (   0.0833333   0.0833333   0.4166667), wk =   0.2222222
        k(    4) = (   0.0833333   0.2500000   0.2500000), wk =   0.2222222
        k(    5) = (   0.0833333   0.2500000   0.4166667), wk =   0.4444444
        k(    6) = (   0.0833333   0.4166667   0.4166667), wk =   0.2222222
        k(    7) = (   0.2500000   0.2500000   0.2500000), wk =   0.0740741
        k(    8) = (   0.2500000   0.2500000   0.4166667), wk =   0.2222222
        k(    9) = (   0.2500000   0.4166667   0.4166667), wk =   0.2222222
        k(   10) = (   0.4166667   0.4166667   0.4166667), wk =   0.0740741

     Dense  grid:    71999 G-vectors     FFT dimensions: (  54,  54,  54)

     Smooth grid:    25413 G-vectors     FFT dimensions: (  40,  40,  40)

     Estimated max dynamical RAM per process >       2.69MB

     Estimated total allocated dynamical RAM >      75.28MB

     Initial potential from superposition of free atoms

     starting charge   38.98495, renormalised to   40.00000
     Starting wfc are   35 randomized atomic wfcs

     total cpu time spent up to now is        0.4 secs

     per-process dynamical memory:    37.4 Mb

     Self-consistent Calculation

     iteration #  1     ecut=    60.00 Ry     beta=0.60
     Davidson diagonalization with overlap
     ethr =  1.00E-02,  avg # of iterations =  2.5

     total cpu time spent up to now is        0.6 secs

     total energy              =    -302.91133413 Ry
     Harris-Foulkes estimate   =    -303.47828287 Ry
     estimated scf accuracy    <       0.79144608 Ry

     iteration #  2     ecut=    60.00 Ry     beta=0.60
     Davidson diagonalization with overlap
     ethr =  1.98E-03,  avg # of iterations =  4.0

     total cpu time spent up to now is        0.8 secs

     total energy              =    -302.37371517 Ry
     Harris-Foulkes estimate   =    -303.82961837 Ry
     estimated scf accuracy    <       5.47597511 Ry

     iteration #  3     ecut=    60.00 Ry     beta=0.60
     Davidson diagonalization with overlap
     ethr =  1.98E-03,  avg # of iterations =  3.4

     total cpu time spent up to now is        1.0 secs

     total energy              =    -303.31111856 Ry
     Harris-Foulkes estimate   =    -303.35501143 Ry
     estimated scf accuracy    <       0.16551310 Ry

     iteration #  4     ecut=    60.00 Ry     beta=0.60
     Davidson diagonalization with overlap
     ethr =  4.14E-04,  avg # of iterations =  1.4

     total cpu time spent up to now is        1.1 secs

     total energy              =    -303.29816712 Ry
     Harris-Foulkes estimate   =    -303.31944602 Ry
     estimated scf accuracy    <       0.06148913 Ry

     iteration #  5     ecut=    60.00 Ry     beta=0.60
     Davidson diagonalization with overlap
     ethr =  1.54E-04,  avg # of iterations =  3.1

     total cpu time spent up to now is        1.3 secs

     total energy              =    -303.31084880 Ry
     Harris-Foulkes estimate   =    -303.31081214 Ry
     estimated scf accuracy    <       0.00037685 Ry

     iteration #  6     ecut=    60.00 Ry     beta=0.60
     Davidson diagonalization with overlap
     ethr =  9.42E-07,  avg # of iterations =  4.2

     total cpu time spent up to now is        1.5 secs

     total energy              =    -303.31088297 Ry
     Harris-Foulkes estimate   =    -303.31108657 Ry
     estimated scf accuracy    <       0.00042061 Ry

     iteration #  7     ecut=    60.00 Ry     beta=0.60
     Davidson diagonalization with overlap
     ethr =  9.42E-07,  avg # of iterations =  3.3

     total cpu time spent up to now is        1.7 secs

     total energy              =    -303.31098234 Ry
     Harris-Foulkes estimate   =    -303.31099135 Ry
     estimated scf accuracy    <       0.00002854 Ry

     iteration #  8     ecut=    60.00 Ry     beta=0.60
     Davidson diagonalization with overlap
     ethr =  7.13E-08,  avg # of iterations =  2.0

     total cpu time spent up to now is        1.9 secs

     total energy              =    -303.31098475 Ry
     Harris-Foulkes estimate   =    -303.31098610 Ry
     estimated scf accuracy    <       0.00000300 Ry

     iteration #  9     ecut=    60.00 Ry     beta=0.60
     Davidson diagonalization with overlap
     ethr =  7.49E-09,  avg # of iterations =  3.3

     total cpu time spent up to now is        2.1 secs

     total energy              =    -303.31098564 Ry
     Harris-Foulkes estimate   =    -303.31098566 Ry
     estimated scf accuracy    <       0.00000008 Ry

     iteration # 10     ecut=    60.00 Ry     beta=0.60
     Davidson diagonalization with overlap
     ethr =  2.07E-10,  avg # of iterations =  3.0

     total cpu time spent up to now is        2.2 secs

          k = 0.0833 0.0833 0.0833     band energies (ev):

   -45.1081 -21.3828 -21.3823 -21.3823 -13.1525  -5.7375  -5.0906  -5.0906
     1.6109   1.6109   1.7617   8.6198   8.8293   8.8293   9.5201   9.5201
     9.9036  10.6113  10.9289  10.9289  13.3842  13.4382  13.4382  15.9445

          k = 0.0833 0.0833 0.2500     band energies (ev):

   -45.1075 -21.4136 -21.3813 -21.3810 -13.0814  -5.8212  -5.0747  -4.9740
     1.6672   1.6794   1.9750   7.8770   8.5505   8.6373   9.1189   9.1243
     9.8204   9.9372  10.6232  10.6303  13.4582  14.1956  14.2036  15.9469

          k = 0.0833 0.0833 0.4167     band energies (ev):

   -45.1068 -21.4444 -21.3799 -21.3797 -13.0077  -5.9896  -5.0587  -4.7471
     1.7248   1.8543   2.0731   7.1115   8.3175   8.3907   8.5800   8.9479
     9.6487   9.8414  10.2656  10.3650  13.5013  14.9197  14.9310  15.9430

          k = 0.0833 0.2500 0.2500     band energies (ev):

   -45.1068 -21.4125 -21.4113 -21.3799 -13.0222  -5.7272  -5.0357  -4.9836
     1.5737   1.6871   2.0898   7.5586   8.0779   8.3113   8.7075   8.8987
     9.5036  10.1089  10.2448  10.7149  14.1713  14.3090  14.5646  16.4696

          k = 0.0833 0.2500 0.4167     band energies (ev):

   -45.1062 -21.4423 -21.4102 -21.3787 -12.9613  -5.7458  -5.0038  -4.8547
     1.5817   1.7617   2.0202   7.0339   7.6890   7.9364   8.4133   8.7775
     9.6079   9.9441  10.1234  10.6822  14.2772  14.9582  15.0961  16.5706

          k = 0.0833 0.4167 0.4167     band energies (ev):

   -45.1056 -21.4404 -21.4401 -21.3775 -12.9137  -5.4930  -4.9760  -4.9315
     1.5302   1.5844   1.9970   6.8750   7.2418   7.2538   8.4376   8.4615
     9.3560  10.2035  10.3532  11.0276  14.9711  15.0073  15.4144  16.7707

          k = 0.2500 0.2500 0.2500     band energies (ev):

   -45.1062 -21.4114 -21.4098 -21.4098 -12.9709  -5.5574  -4.9854  -4.9854
     1.4082   1.4082   2.1555   7.3399   8.0303   8.0303   8.5905   8.7959
     8.7959  10.4213  10.4745  10.4745  14.6614  14.6748  14.6748  17.7278

          k = 0.2500 0.2500 0.4167     band energies (ev):

   -45.1056 -21.4405 -21.4092 -21.4084 -12.9182  -5.4884  -4.9333  -4.8739
     1.2434   1.4256   1.8935   7.0088   7.6934   8.0019   8.0761   8.7994
     8.9658  10.2342  10.5567  10.5922  14.7689  15.1684  15.2160  17.6964

          k = 0.2500 0.4167 0.4167     band energies (ev):

   -45.1050 -21.4387 -21.4385 -21.4074 -12.8740  -5.2175  -4.8908  -4.8654
     1.1236   1.1650   1.5176   6.8752   7.2566   7.9188   8.1084   8.7392
     8.8341  10.4888  10.5938  10.9890  15.2860  15.3001  15.5259  18.0576

          k = 0.4167 0.4167 0.4167     band energies (ev):

   -45.1043 -21.4372 -21.4369 -21.4369 -12.8336  -4.9195  -4.7999  -4.7999
     0.8247   0.8247   1.0066   6.7363   7.2628   7.2628   8.6190   8.8952
     8.8952  10.9189  10.9189  10.9969  15.6453  15.6453  15.6526  18.7427

     highest occupied, lowest unoccupied level (ev):    11.0276   13.3842

!    total energy              =    -303.31098566 Ry
     Harris-Foulkes estimate   =    -303.31098566 Ry
     estimated scf accuracy    <          4.1E-09 Ry

     The total energy is the sum of the following terms:

     one-electron contribution =     -64.96029883 Ry
     hartree contribution      =      57.91814598 Ry
     xc contribution           =     -84.35423192 Ry
     ewald contribution        =    -211.91466263 Ry
     scf correction            =       0.00006175 Ry

     iteration # 11     ecut=    60.00 Ry     beta=0.60
     Davidson diagonalization with overlap
     ethr =  1.02E-11,  avg # of iterations =  4.0

     total cpu time spent up to now is        2.4 secs

     total energy              =    -303.31098566 Ry
     Harris-Foulkes estimate   =    -303.31098566 Ry
     estimated scf accuracy    <          1.9E-09 Ry

     iteration # 12     ecut=    60.00 Ry     beta=0.60
     Davidson diagonalization with overlap
     ethr =  4.80E-12,  avg # of iterations =  2.8

     total cpu time spent up to now is        2.6 secs

     total energy              =    -303.31098566 Ry
     Harris-Foulkes estimate   =    -303.31098566 Ry
     estimated scf accuracy    <          1.3E-11 Ry

     iteration # 13     ecut=    60.00 Ry     beta=0.60
     Davidson diagonalization with overlap
     ethr =  1.00E-13,  avg # of iterations =  3.1

     total cpu time spent up to now is        2.8 secs

     total energy              =    -303.31098566 Ry
     Harris-Foulkes estimate   =    -303.31098566 Ry
     estimated scf accuracy    <          1.1E-12 Ry

     iteration # 14     ecut=    60.00 Ry     beta=0.60
     Davidson diagonalization with overlap
     ethr =  1.00E-13,  avg # of iterations =  1.0

     total cpu time spent up to now is        2.9 secs

     End of self-consistent calculation

          k = 0.0833 0.0833 0.0833 (  3164 PWs)   bands (ev):

   -45.1079 -21.3826 -21.3822 -21.3822 -13.1526  -5.7375  -5.0906  -5.0906
     1.6109   1.6109   1.7617   8.6198   8.8292   8.8292   9.5201   9.5201
     9.9036  10.6113  10.9289  10.9289  13.3843  13.4383  13.4383  15.9447

          k = 0.0833 0.0833 0.2500 (  3156 PWs)   bands (ev):

   -45.1073 -21.4134 -21.3811 -21.3808 -13.0814  -5.8212  -5.0747  -4.9740
     1.6672   1.6794   1.9750   7.8770   8.5505   8.6373   9.1189   9.1243
     9.8204   9.9372  10.6232  10.6303  13.4583  14.1957  14.2037  15.9470

          k = 0.0833 0.0833 0.4167 (  3188 PWs)   bands (ev):

   -45.1067 -21.4443 -21.3798 -21.3796 -13.0078  -5.9897  -5.0587  -4.7471
     1.7248   1.8543   2.0730   7.1116   8.3175   8.3907   8.5800   8.9479
     9.6487   9.8414  10.2656  10.3650  13.5014  14.9198  14.9311  15.9431

          k = 0.0833 0.2500 0.2500 (  3173 PWs)   bands (ev):

   -45.1067 -21.4124 -21.4111 -21.3797 -13.0223  -5.7272  -5.0357  -4.9836
     1.5737   1.6871   2.0897   7.5586   8.0779   8.3114   8.7075   8.8987
     9.5035  10.1089  10.2448  10.7149  14.1715  14.3091  14.5647  16.4697

          k = 0.0833 0.2500 0.4167 (  3178 PWs)   bands (ev):

   -45.1060 -21.4422 -21.4100 -21.3785 -12.9613  -5.7458  -5.0038  -4.8548
     1.5817   1.7617   2.0202   7.0340   7.6890   7.9364   8.4133   8.7775
     9.6079   9.9441  10.1234  10.6822  14.2773  14.9583  15.0962  16.5707

          k = 0.0833 0.4167 0.4167 (  3183 PWs)   bands (ev):

   -45.1054 -21.4402 -21.4399 -21.3774 -12.9137  -5.4930  -4.9760  -4.9315
     1.5301   1.5844   1.9970   6.8751   7.2418   7.2538   8.4376   8.4615
     9.3560  10.2035  10.3532  11.0276  14.9712  15.0074  15.4145  16.7708

          k = 0.2500 0.2500 0.2500 (  3197 PWs)   bands (ev):

   -45.1060 -21.4112 -21.4097 -21.4097 -12.9709  -5.5574  -4.9854  -4.9854
     1.4081   1.4081   2.1555   7.3399   8.0303   8.0303   8.5906   8.7959
     8.7959  10.4213  10.4745  10.4745  14.6615  14.6749  14.6749  17.7280

          k = 0.2500 0.2500 0.4167 (  3190 PWs)   bands (ev):

   -45.1054 -21.4403 -21.4090 -21.4082 -12.9182  -5.4884  -4.9333  -4.8739
     1.2434   1.4256   1.8934   7.0088   7.6934   8.0019   8.0761   8.7994
     8.9658  10.2342  10.5567  10.5922  14.7690  15.1685  15.2161  17.6965

          k = 0.2500 0.4167 0.4167 (  3181 PWs)   bands (ev):

   -45.1048 -21.4386 -21.4383 -21.4072 -12.8741  -5.2175  -4.8908  -4.8654
     1.1236   1.1650   1.5176   6.8752   7.2567   7.9188   8.1084   8.7393
     8.8341  10.4887  10.5938  10.9890  15.2861  15.3002  15.5260  18.0576

          k = 0.4167 0.4167 0.4167 (  3181 PWs)   bands (ev):

   -45.1042 -21.4370 -21.4367 -21.4367 -12.8336  -4.9195  -4.7999  -4.7999
     0.8247   0.8247   1.0066   6.7363   7.2628   7.2628   8.6190   8.8953
     8.8953  10.9189  10.9189  10.9969  15.6455  15.6455  15.6527  18.7427

     highest occupied, lowest unoccupied level (ev):    11.0276   13.3843

!    total energy              =    -303.31098566 Ry
     Harris-Foulkes estimate   =    -303.31098566 Ry
     estimated scf accuracy    <          1.2E-13 Ry

     The total energy is the sum of the following terms:

     one-electron contribution =     -64.96015967 Ry
     hartree contribution      =      57.91806323 Ry
     xc contribution           =     -84.35422659 Ry
     ewald contribution        =    -211.91466263 Ry

     convergence has been achieved in  14 iterations

     Forces acting on atoms (cartesian axes, Ry/au):

     atom    1 type  3   force =     0.00000000    0.00000000    0.00000000
     atom    2 type  2   force =     0.00000000   -0.00000000    0.00000000
     atom    3 type  1   force =     0.00000000    0.00000000    0.00000000
     atom    4 type  1   force =     0.00000000    0.00000000    0.00000000
     atom    5 type  1   force =     0.00000000    0.00000000    0.00000000

     Total force =     0.000000     Total SCF correction =     0.000000


     Computing stress (Cartesian axis) and pressure

          total   stress  (Ry/bohr**3)                   (kbar)     P=   89.37
   0.00060750   0.00000000   0.00000000         89.37      0.00      0.00
   0.00000000   0.00060750   0.00000000          0.00     89.37      0.00
   0.00000000   0.00000000   0.00060750          0.00      0.00     89.37


     Writing output data file bto.save
 
     init_run     :      0.16s CPU      0.18s WALL (       1 calls)
     electrons    :      2.47s CPU      2.58s WALL (       1 calls)
     forces       :      0.05s CPU      0.05s WALL (       1 calls)
     stress       :      0.11s CPU      0.11s WALL (       1 calls)

     Called by init_run:
     wfcinit      :      0.05s CPU      0.05s WALL (       1 calls)
     potinit      :      0.01s CPU      0.01s WALL (       1 calls)

     Called by electrons:
     c_bands      :      1.77s CPU      1.81s WALL (      14 calls)
     sum_band     :      0.45s CPU      0.46s WALL (      14 calls)
     v_of_rho     :      0.04s CPU      0.05s WALL (      15 calls)
     newd         :      0.20s CPU      0.21s WALL (      15 calls)
     mix_rho      :      0.01s CPU      0.01s WALL (      14 calls)

     Called by c_bands:
     init_us_2    :      0.02s CPU      0.02s WALL (     310 calls)
     cegterg      :      1.68s CPU      1.72s WALL (     140 calls)

     Called by sum_band:
     sum_band:bec :      0.00s CPU      0.00s WALL (     140 calls)
     addusdens    :      0.23s CPU      0.24s WALL (      14 calls)

     Called by *egterg:
     h_psi        :      0.94s CPU      0.98s WALL (     561 calls)
     s_psi        :      0.02s CPU      0.02s WALL (     561 calls)
     g_psi        :      0.00s CPU      0.00s WALL (     411 calls)
     cdiaghg      :      0.56s CPU      0.53s WALL (     551 calls)

     Called by h_psi:
     h_psi:pot    :      0.94s CPU      0.98s WALL (     561 calls)
     h_psi:calbec :      0.06s CPU      0.05s WALL (     561 calls)
     vloc_psi     :      0.86s CPU      0.90s WALL (     561 calls)
     add_vuspsi   :      0.02s CPU      0.02s WALL (     561 calls)

     General routines
     calbec       :      0.08s CPU      0.08s WALL (     751 calls)
     fft          :      0.03s CPU      0.05s WALL (     261 calls)
     ffts         :      0.00s CPU      0.00s WALL (      29 calls)
     fftw         :      0.94s CPU      0.98s WALL (   21188 calls)
     interpolate  :      0.01s CPU      0.01s WALL (      29 calls)
     davcio       :      0.00s CPU      0.00s WALL (      10 calls)
 
     Parallel routines
     fft_scatter  :      0.57s CPU      0.57s WALL (   21478 calls)
 
     PWSCF        :     2.94s CPU         3.26s WALL

 
   This run was terminated on:  11:14:43  31Dec2017            

=------------------------------------------------------------------------------=
   JOB DONE.
=------------------------------------------------------------------------------=
