
     Program PWSCF v.6.1 (svn rev. 13369) starts on 31Dec2017 at 11:14:45 

     This program is part of the open-source Quantum ESPRESSO suite
     for quantum simulation of materials; please cite
         "P. Giannozzi et al., J. Phys.:Condens. Matter 21 395502 (2009);
          URL http://www.quantum-espresso.org", 
     in publications or presentations arising from this work. More details at
     http://www.quantum-espresso.org/quote

     Parallel version (MPI), running on    28 processors
     R & G space division:  proc/nbgrp/npool/nimage =      28
     Waiting for input...
     Reading input from standard input

     Current dimensions of program PWSCF are:
     Max number of different atomic species (ntypx) = 10
     Max number of k-points (npk) =  40000
     Max angular momentum in pseudopotentials (lmaxx) =  3
               file O.pbe-rrkjus.UPF: wavefunction(s)  2S renormalized

     Subspace diagonalization in iterative solution of the eigenvalue problem:
     a serial algorithm will be used

 
     Parallelization info
     --------------------
     sticks:   dense  smooth     PW     G-vecs:    dense   smooth      PW
     Min          99      49     14                 3953     1396     214
     Max         100      50     15                 3956     1398     217
     Sum        2785    1389    401               110699    39127    6031
 

     Title: 
     cubic BaTiO3 at 7.40 lattice parameter. xc=PBE                             


     bravais-lattice index     =            1
     lattice parameter (alat)  =       7.4000  a.u.
     unit-cell volume          =     405.2240 (a.u.)^3
     number of atoms/cell      =            5
     number of atomic types    =            3
     number of electrons       =        40.00
     number of Kohn-Sham states=           24
     kinetic-energy cutoff     =      80.0000  Ry
     charge density cutoff     =     640.0000  Ry
     convergence threshold     =      1.0E-12
     mixing beta               =       0.6000
     number of iterations used =            8  plain     mixing
     Exchange-correlation      =  SLA  PW   PBE  PBE ( 1  4  3  4 0 0)

     celldm(1)=   7.400000  celldm(2)=   0.000000  celldm(3)=   0.000000
     celldm(4)=   0.000000  celldm(5)=   0.000000  celldm(6)=   0.000000

     crystal axes: (cart. coord. in units of alat)
               a(1) = (   1.000000   0.000000   0.000000 )  
               a(2) = (   0.000000   1.000000   0.000000 )  
               a(3) = (   0.000000   0.000000   1.000000 )  

     reciprocal axes: (cart. coord. in units 2 pi/alat)
               b(1) = (  1.000000  0.000000  0.000000 )  
               b(2) = (  0.000000  1.000000  0.000000 )  
               b(3) = (  0.000000  0.000000  1.000000 )  


     PseudoPot. # 1 for O  read from file:
     ../../PSP_DIR/O.pbe-rrkjus.UPF
     MD5 check sum: 390ba29e75625707450f3bd3f0eb6be9
     Pseudo is Ultrasoft, Zval =  6.0
     Generated by new atomic code, or converted to UPF format
     Using radial grid of 1269 points,  4 beta functions with: 
                l(1) =   0
                l(2) =   0
                l(3) =   1
                l(4) =   1
     Q(r) pseudized with 0 coefficients 


     PseudoPot. # 2 for Ti read from file:
     ../../PSP_DIR/Ti.pbe-sp-van_ak.UPF
     MD5 check sum: 8e4df49b7f0d34bbd5052bf3f5ea0213
     Pseudo is Ultrasoft, Zval = 12.0
     Generated by new atomic code, or converted to UPF format
     Using radial grid of  851 points,  6 beta functions with: 
                l(1) =   0
                l(2) =   0
                l(3) =   1
                l(4) =   1
                l(5) =   2
                l(6) =   2
     Q(r) pseudized with  8 coefficients,  rinner =    1.000   1.000   1.000
                                                       1.000   1.000

     PseudoPot. # 3 for Ba read from file:
     ../../PSP_DIR/Ba.pbe-nsp-van.UPF
     MD5 check sum: a011de417d3466d8e94df216395bc359
     Pseudo is Ultrasoft + core correction, Zval = 10.0
     Generated by new atomic code, or converted to UPF format
     Using radial grid of  907 points,  6 beta functions with: 
                l(1) =   0
                l(2) =   0
                l(3) =   1
                l(4) =   1
                l(5) =   2
                l(6) =   2
     Q(r) pseudized with  6 coefficients,  rinner =    1.200   1.200   1.200
                                                       1.200   1.200

     atomic species   valence    mass     pseudopotential
        O              6.00    15.99000     O ( 1.00)
        Ti            12.00    47.88000     Ti( 1.00)
        Ba            10.00   137.33000     Ba( 1.00)

     48 Sym. Ops., with inversion, found



   Cartesian axes

     site n.     atom                  positions (alat units)
         1           Ba  tau(   1) = (   0.0000000   0.0000000   0.0000000  )
         2           Ti  tau(   2) = (   0.5000000   0.5000000   0.5000000  )
         3           O   tau(   3) = (   0.0000000   0.5000000   0.5000000  )
         4           O   tau(   4) = (   0.5000000   0.0000000   0.5000000  )
         5           O   tau(   5) = (   0.5000000   0.5000000   0.0000000  )

     number of k points=    10
                       cart. coord. in units 2pi/alat
        k(    1) = (   0.0833333   0.0833333   0.0833333), wk =   0.0740741
        k(    2) = (   0.0833333   0.0833333   0.2500000), wk =   0.2222222
        k(    3) = (   0.0833333   0.0833333   0.4166667), wk =   0.2222222
        k(    4) = (   0.0833333   0.2500000   0.2500000), wk =   0.2222222
        k(    5) = (   0.0833333   0.2500000   0.4166667), wk =   0.4444444
        k(    6) = (   0.0833333   0.4166667   0.4166667), wk =   0.2222222
        k(    7) = (   0.2500000   0.2500000   0.2500000), wk =   0.0740741
        k(    8) = (   0.2500000   0.2500000   0.4166667), wk =   0.2222222
        k(    9) = (   0.2500000   0.4166667   0.4166667), wk =   0.2222222
        k(   10) = (   0.4166667   0.4166667   0.4166667), wk =   0.0740741

     Dense  grid:   110699 G-vectors     FFT dimensions: (  60,  60,  60)

     Smooth grid:    39127 G-vectors     FFT dimensions: (  45,  45,  45)

     Estimated max dynamical RAM per process >       4.10MB

     Estimated total allocated dynamical RAM >     114.82MB

     Initial potential from superposition of free atoms

     starting charge   38.98495, renormalised to   40.00000
     Starting wfc are   35 randomized atomic wfcs

     total cpu time spent up to now is        0.5 secs

     per-process dynamical memory:    43.4 Mb

     Self-consistent Calculation

     iteration #  1     ecut=    80.00 Ry     beta=0.60
     Davidson diagonalization with overlap
     ethr =  1.00E-02,  avg # of iterations =  2.6

     total cpu time spent up to now is        0.7 secs

     total energy              =    -302.90815026 Ry
     Harris-Foulkes estimate   =    -303.47757513 Ry
     estimated scf accuracy    <       0.79489747 Ry

     iteration #  2     ecut=    80.00 Ry     beta=0.60
     Davidson diagonalization with overlap
     ethr =  1.99E-03,  avg # of iterations =  4.0

     total cpu time spent up to now is        1.0 secs

     total energy              =    -302.36739118 Ry
     Harris-Foulkes estimate   =    -303.83466732 Ry
     estimated scf accuracy    <       5.52960900 Ry

     iteration #  3     ecut=    80.00 Ry     beta=0.60
     Davidson diagonalization with overlap
     ethr =  1.99E-03,  avg # of iterations =  3.4

     total cpu time spent up to now is        1.3 secs

     total energy              =    -303.31173664 Ry
     Harris-Foulkes estimate   =    -303.35589546 Ry
     estimated scf accuracy    <       0.16601919 Ry

     iteration #  4     ecut=    80.00 Ry     beta=0.60
     Davidson diagonalization with overlap
     ethr =  4.15E-04,  avg # of iterations =  1.4

     total cpu time spent up to now is        1.5 secs

     total energy              =    -303.29878788 Ry
     Harris-Foulkes estimate   =    -303.32013276 Ry
     estimated scf accuracy    <       0.06166783 Ry

     iteration #  5     ecut=    80.00 Ry     beta=0.60
     Davidson diagonalization with overlap
     ethr =  1.54E-04,  avg # of iterations =  3.1

     total cpu time spent up to now is        1.7 secs

     total energy              =    -303.31150518 Ry
     Harris-Foulkes estimate   =    -303.31146991 Ry
     estimated scf accuracy    <       0.00037630 Ry

     iteration #  6     ecut=    80.00 Ry     beta=0.60
     Davidson diagonalization with overlap
     ethr =  9.41E-07,  avg # of iterations =  4.0

     total cpu time spent up to now is        2.0 secs

     total energy              =    -303.31154291 Ry
     Harris-Foulkes estimate   =    -303.31174517 Ry
     estimated scf accuracy    <       0.00041375 Ry

     iteration #  7     ecut=    80.00 Ry     beta=0.60
     Davidson diagonalization with overlap
     ethr =  9.41E-07,  avg # of iterations =  3.3

     total cpu time spent up to now is        2.2 secs

     total energy              =    -303.31164146 Ry
     Harris-Foulkes estimate   =    -303.31165049 Ry
     estimated scf accuracy    <       0.00002833 Ry

     iteration #  8     ecut=    80.00 Ry     beta=0.60
     Davidson diagonalization with overlap
     ethr =  7.08E-08,  avg # of iterations =  2.0

     total cpu time spent up to now is        2.4 secs

     total energy              =    -303.31164390 Ry
     Harris-Foulkes estimate   =    -303.31164526 Ry
     estimated scf accuracy    <       0.00000301 Ry

     iteration #  9     ecut=    80.00 Ry     beta=0.60
     Davidson diagonalization with overlap
     ethr =  7.53E-09,  avg # of iterations =  3.2

     total cpu time spent up to now is        2.7 secs

     total energy              =    -303.31164474 Ry
     Harris-Foulkes estimate   =    -303.31164476 Ry
     estimated scf accuracy    <       0.00000009 Ry

     iteration # 10     ecut=    80.00 Ry     beta=0.60
     Davidson diagonalization with overlap
     ethr =  2.16E-10,  avg # of iterations =  2.9

     total cpu time spent up to now is        2.9 secs

          k = 0.0833 0.0833 0.0833     band energies (ev):

   -45.1060 -21.3822 -21.3817 -21.3817 -13.1528  -5.7380  -5.0912  -5.0912
     1.6106   1.6106   1.7615   8.6195   8.8289   8.8289   9.5198   9.5198
     9.9033  10.6110  10.9285  10.9285  13.3836  13.4377  13.4377  15.9435

          k = 0.0833 0.0833 0.2500     band energies (ev):

   -45.1053 -21.4130 -21.3807 -21.3804 -13.0816  -5.8217  -5.0753  -4.9746
     1.6670   1.6791   1.9747   7.8767   8.5501   8.6369   9.1186   9.1240
     9.8201   9.9369  10.6229  10.6299  13.4576  14.1950  14.2030  15.9458

          k = 0.0833 0.0833 0.4167     band energies (ev):

   -45.1047 -21.4438 -21.3793 -21.3791 -13.0080  -5.9901  -5.0593  -4.7476
     1.7246   1.8540   2.0728   7.1112   8.3172   8.3904   8.5797   8.9476
     9.6484   9.8411  10.2653  10.3647  13.5007  14.9190  14.9303  15.9420

          k = 0.0833 0.2500 0.2500     band energies (ev):

   -45.1047 -21.4119 -21.4107 -21.3793 -13.0225  -5.7277  -5.0362  -4.9842
     1.5735   1.6869   2.0895   7.5583   8.0775   8.3110   8.7072   8.8984
     9.5033  10.1085  10.2444  10.7145  14.1707  14.3083  14.5639  16.4685

          k = 0.0833 0.2500 0.4167     band energies (ev):

   -45.1041 -21.4417 -21.4096 -21.3781 -12.9616  -5.7463  -5.0043  -4.8553
     1.5815   1.7615   2.0200   7.0337   7.6887   7.9361   8.4130   8.7772
     9.6076   9.9438  10.1231  10.6819  14.2765  14.9575  15.0954  16.5695

          k = 0.0833 0.4167 0.4167     band energies (ev):

   -45.1034 -21.4398 -21.4395 -21.3769 -12.9140  -5.4935  -4.9766  -4.9321
     1.5299   1.5842   1.9968   6.8748   7.2415   7.2534   8.4373   8.4612
     9.3557  10.2032  10.3529  11.0273  14.9704  15.0066  15.4136  16.7697

          k = 0.2500 0.2500 0.2500     band energies (ev):

   -45.1041 -21.4108 -21.4092 -21.4092 -12.9711  -5.5579  -4.9859  -4.9859
     1.4079   1.4079   2.1553   7.3397   8.0300   8.0300   8.5903   8.7956
     8.7956  10.4210  10.4741  10.4741  14.6608  14.6742  14.6742  17.7268

          k = 0.2500 0.2500 0.4167     band energies (ev):

   -45.1034 -21.4399 -21.4086 -21.4078 -12.9184  -5.4889  -4.9339  -4.8745
     1.2431   1.4253   1.8932   7.0085   7.6930   8.0016   8.0758   8.7991
     8.9656  10.2338  10.5564  10.5919  14.7683  15.1678  15.2153  17.6953

          k = 0.2500 0.4167 0.4167     band energies (ev):

   -45.1028 -21.4381 -21.4379 -21.4068 -12.8743  -5.2180  -4.8914  -4.8659
     1.1233   1.1648   1.5174   6.8750   7.2563   7.9185   8.1080   8.7390
     8.8338  10.4884  10.5935  10.9887  15.2853  15.2994  15.5251  18.0565

          k = 0.4167 0.4167 0.4167     band energies (ev):

   -45.1022 -21.4366 -21.4363 -21.4363 -12.8338  -4.9201  -4.8005  -4.8005
     0.8245   0.8245   1.0063   6.7362   7.2624   7.2624   8.6187   8.8950
     8.8950  10.9186  10.9186  10.9966  15.6446  15.6446  15.6519  18.7424

     highest occupied, lowest unoccupied level (ev):    11.0273   13.3836

!    total energy              =    -303.31164477 Ry
     Harris-Foulkes estimate   =    -303.31164477 Ry
     estimated scf accuracy    <          4.2E-09 Ry

     The total energy is the sum of the following terms:

     one-electron contribution =     -64.96189243 Ry
     hartree contribution      =      57.91856467 Ry
     xc contribution           =     -84.35364229 Ry
     ewald contribution        =    -211.91466263 Ry
     scf correction            =      -0.00001208 Ry

     iteration # 11     ecut=    80.00 Ry     beta=0.60
     Davidson diagonalization with overlap
     ethr =  1.04E-11,  avg # of iterations =  3.9

     total cpu time spent up to now is        3.2 secs

     total energy              =    -303.31164477 Ry
     Harris-Foulkes estimate   =    -303.31164477 Ry
     estimated scf accuracy    <          2.5E-09 Ry

     iteration # 12     ecut=    80.00 Ry     beta=0.60
     Davidson diagonalization with overlap
     ethr =  6.19E-12,  avg # of iterations =  2.8

     total cpu time spent up to now is        3.4 secs

     total energy              =    -303.31164477 Ry
     Harris-Foulkes estimate   =    -303.31164477 Ry
     estimated scf accuracy    <          2.0E-11 Ry

     iteration # 13     ecut=    80.00 Ry     beta=0.60
     Davidson diagonalization with overlap
     ethr =  1.00E-13,  avg # of iterations =  3.5

     total cpu time spent up to now is        3.7 secs

     total energy              =    -303.31164477 Ry
     Harris-Foulkes estimate   =    -303.31164477 Ry
     estimated scf accuracy    <          4.3E-12 Ry

     iteration # 14     ecut=    80.00 Ry     beta=0.60
     Davidson diagonalization with overlap
     ethr =  1.00E-13,  avg # of iterations =  1.1

     total cpu time spent up to now is        3.9 secs

     End of self-consistent calculation

          k = 0.0833 0.0833 0.0833 (  4887 PWs)   bands (ev):

   -45.1058 -21.3821 -21.3816 -21.3816 -13.1528  -5.7380  -5.0912  -5.0912
     1.6106   1.6106   1.7615   8.6195   8.8289   8.8289   9.5198   9.5198
     9.9033  10.6109  10.9285  10.9285  13.3837  13.4377  13.4377  15.9436

          k = 0.0833 0.0833 0.2500 (  4902 PWs)   bands (ev):

   -45.1052 -21.4129 -21.3805 -21.3803 -13.0816  -5.8217  -5.0753  -4.9746
     1.6670   1.6792   1.9747   7.8767   8.5501   8.6369   9.1186   9.1240
     9.8201   9.9369  10.6229  10.6299  13.4577  14.1951  14.2031  15.9459

          k = 0.0833 0.0833 0.4167 (  4913 PWs)   bands (ev):

   -45.1045 -21.4437 -21.3792 -21.3790 -13.0080  -5.9902  -5.0593  -4.7477
     1.7246   1.8541   2.0728   7.1112   8.3172   8.3904   8.5797   8.9476
     9.6484   9.8411  10.2653  10.3647  13.5008  14.9191  14.9304  15.9421

          k = 0.0833 0.2500 0.2500 (  4914 PWs)   bands (ev):

   -45.1046 -21.4118 -21.4105 -21.3792 -13.0225  -5.7277  -5.0363  -4.9842
     1.5735   1.6869   2.0895   7.5583   8.0775   8.3110   8.7072   8.8984
     9.5032  10.1085  10.2444  10.7145  14.1708  14.3084  14.5640  16.4686

          k = 0.0833 0.2500 0.4167 (  4900 PWs)   bands (ev):

   -45.1039 -21.4416 -21.4094 -21.3779 -12.9616  -5.7463  -5.0044  -4.8553
     1.5815   1.7615   2.0200   7.0337   7.6887   7.9361   8.4130   8.7772
     9.6076   9.9438  10.1231  10.6819  14.2766  14.9576  15.0955  16.5696

          k = 0.0833 0.4167 0.4167 (  4891 PWs)   bands (ev):

   -45.1033 -21.4397 -21.4393 -21.3768 -12.9140  -5.4936  -4.9766  -4.9321
     1.5299   1.5842   1.9968   6.8748   7.2415   7.2534   8.4373   8.4612
     9.3556  10.2032  10.3529  11.0273  14.9705  15.0067  15.4137  16.7698

          k = 0.2500 0.2500 0.2500 (  4902 PWs)   bands (ev):

   -45.1039 -21.4106 -21.4091 -21.4091 -12.9711  -5.5579  -4.9859  -4.9859
     1.4079   1.4079   2.1553   7.3397   8.0300   8.0300   8.5903   8.7956
     8.7956  10.4210  10.4741  10.4741  14.6609  14.6743  14.6743  17.7269

          k = 0.2500 0.2500 0.4167 (  4902 PWs)   bands (ev):

   -45.1033 -21.4397 -21.4084 -21.4077 -12.9184  -5.4889  -4.9339  -4.8745
     1.2432   1.4253   1.8932   7.0085   7.6930   8.0016   8.0758   8.7991
     8.9656  10.2338  10.5564  10.5918  14.7684  15.1679  15.2154  17.6954

          k = 0.2500 0.4167 0.4167 (  4882 PWs)   bands (ev):

   -45.1027 -21.4380 -21.4377 -21.4067 -12.8743  -5.2181  -4.8914  -4.8660
     1.1233   1.1648   1.5174   6.8750   7.2563   7.9185   8.1080   8.7390
     8.8338  10.4884  10.5934  10.9887  15.2853  15.2995  15.5252  18.0566

          k = 0.4167 0.4167 0.4167 (  4857 PWs)   bands (ev):

   -45.1021 -21.4364 -21.4361 -21.4361 -12.8338  -4.9201  -4.8005  -4.8005
     0.8245   0.8245   1.0064   6.7362   7.2624   7.2624   8.6187   8.8950
     8.8950  10.9185  10.9185  10.9965  15.6447  15.6447  15.6520  18.7424

     highest occupied, lowest unoccupied level (ev):    11.0273   13.3837

!    total energy              =    -303.31164477 Ry
     Harris-Foulkes estimate   =    -303.31164477 Ry
     estimated scf accuracy    <          1.8E-13 Ry

     The total energy is the sum of the following terms:

     one-electron contribution =     -64.96179808 Ry
     hartree contribution      =      57.91844947 Ry
     xc contribution           =     -84.35363353 Ry
     ewald contribution        =    -211.91466263 Ry

     convergence has been achieved in  14 iterations

     Forces acting on atoms (cartesian axes, Ry/au):

     atom    1 type  3   force =     0.00000000    0.00000000    0.00000000
     atom    2 type  2   force =     0.00000000    0.00000000    0.00000000
     atom    3 type  1   force =     0.00000000    0.00000000   -0.00000000
     atom    4 type  1   force =     0.00000000    0.00000000    0.00000000
     atom    5 type  1   force =     0.00000000    0.00000000    0.00000000

     Total force =     0.000000     Total SCF correction =     0.000000


     Computing stress (Cartesian axis) and pressure

          total   stress  (Ry/bohr**3)                   (kbar)     P=   89.87
   0.00061090   0.00000000   0.00000000         89.87      0.00      0.00
   0.00000000   0.00061090   0.00000000          0.00     89.87      0.00
   0.00000000   0.00000000   0.00061090          0.00      0.00     89.87


     Writing output data file bto.save
 
     init_run     :      0.22s CPU      0.25s WALL (       1 calls)
     electrons    :      3.38s CPU      3.47s WALL (       1 calls)
     forces       :      0.07s CPU      0.07s WALL (       1 calls)
     stress       :      0.16s CPU      0.16s WALL (       1 calls)

     Called by init_run:
     wfcinit      :      0.07s CPU      0.07s WALL (       1 calls)
     potinit      :      0.02s CPU      0.02s WALL (       1 calls)

     Called by electrons:
     c_bands      :      2.28s CPU      2.31s WALL (      14 calls)
     sum_band     :      0.69s CPU      0.70s WALL (      14 calls)
     v_of_rho     :      0.08s CPU      0.08s WALL (      15 calls)
     newd         :      0.33s CPU      0.33s WALL (      15 calls)
     mix_rho      :      0.02s CPU      0.02s WALL (      14 calls)

     Called by c_bands:
     init_us_2    :      0.03s CPU      0.03s WALL (     310 calls)
     cegterg      :      2.15s CPU      2.19s WALL (     140 calls)

     Called by sum_band:
     sum_band:bec :      0.00s CPU      0.00s WALL (     140 calls)
     addusdens    :      0.37s CPU      0.38s WALL (      14 calls)

     Called by *egterg:
     h_psi        :      1.35s CPU      1.40s WALL (     562 calls)
     s_psi        :      0.03s CPU      0.03s WALL (     562 calls)
     g_psi        :      0.00s CPU      0.01s WALL (     412 calls)
     cdiaghg      :      0.56s CPU      0.54s WALL (     552 calls)

     Called by h_psi:
     h_psi:pot    :      1.34s CPU      1.39s WALL (     562 calls)
     h_psi:calbec :      0.08s CPU      0.07s WALL (     562 calls)
     vloc_psi     :      1.24s CPU      1.29s WALL (     562 calls)
     add_vuspsi   :      0.03s CPU      0.03s WALL (     562 calls)

     General routines
     calbec       :      0.12s CPU      0.10s WALL (     752 calls)
     fft          :      0.07s CPU      0.08s WALL (     261 calls)
     ffts         :      0.00s CPU      0.00s WALL (      29 calls)
     fftw         :      1.34s CPU      1.39s WALL (   21302 calls)
     interpolate  :      0.01s CPU      0.01s WALL (      29 calls)
     davcio       :      0.00s CPU      0.00s WALL (      10 calls)
 
     Parallel routines
     fft_scatter  :      0.73s CPU      0.74s WALL (   21592 calls)
 
     PWSCF        :     4.01s CPU         4.28s WALL

 
   This run was terminated on:  11:14:49  31Dec2017            

=------------------------------------------------------------------------------=
   JOB DONE.
=------------------------------------------------------------------------------=
