
     Program PWSCF v.6.1 (svn rev. 13369) starts on 31Dec2017 at 11:14:27 

     This program is part of the open-source Quantum ESPRESSO suite
     for quantum simulation of materials; please cite
         "P. Giannozzi et al., J. Phys.:Condens. Matter 21 395502 (2009);
          URL http://www.quantum-espresso.org", 
     in publications or presentations arising from this work. More details at
     http://www.quantum-espresso.org/quote

     Parallel version (MPI), running on    28 processors
     R & G space division:  proc/nbgrp/npool/nimage =      28
     Waiting for input...
     Reading input from standard input

     Current dimensions of program PWSCF are:
     Max number of different atomic species (ntypx) = 10
     Max number of k-points (npk) =  40000
     Max angular momentum in pseudopotentials (lmaxx) =  3
               file O.pbe-rrkjus.UPF: wavefunction(s)  2S renormalized

     Subspace diagonalization in iterative solution of the eigenvalue problem:
     a serial algorithm will be used

 
     Parallelization info
     --------------------
     sticks:   dense  smooth     PW     G-vecs:    dense   smooth      PW
     Min          37      18      5                  907      322      53
     Max          38      19      6                  912      325      58
     Sum        1041     517    161                25413     9045    1551
 

     Title: 
     cubic BaTiO3 at 7.40 lattice parameter. xc=PBE                             


     bravais-lattice index     =            1
     lattice parameter (alat)  =       7.4000  a.u.
     unit-cell volume          =     405.2240 (a.u.)^3
     number of atoms/cell      =            5
     number of atomic types    =            3
     number of electrons       =        40.00
     number of Kohn-Sham states=           24
     kinetic-energy cutoff     =      30.0000  Ry
     charge density cutoff     =     240.0000  Ry
     convergence threshold     =      1.0E-12
     mixing beta               =       0.6000
     number of iterations used =            8  plain     mixing
     Exchange-correlation      =  SLA  PW   PBE  PBE ( 1  4  3  4 0 0)

     celldm(1)=   7.400000  celldm(2)=   0.000000  celldm(3)=   0.000000
     celldm(4)=   0.000000  celldm(5)=   0.000000  celldm(6)=   0.000000

     crystal axes: (cart. coord. in units of alat)
               a(1) = (   1.000000   0.000000   0.000000 )  
               a(2) = (   0.000000   1.000000   0.000000 )  
               a(3) = (   0.000000   0.000000   1.000000 )  

     reciprocal axes: (cart. coord. in units 2 pi/alat)
               b(1) = (  1.000000  0.000000  0.000000 )  
               b(2) = (  0.000000  1.000000  0.000000 )  
               b(3) = (  0.000000  0.000000  1.000000 )  


     PseudoPot. # 1 for O  read from file:
     ../../PSP_DIR/O.pbe-rrkjus.UPF
     MD5 check sum: 390ba29e75625707450f3bd3f0eb6be9
     Pseudo is Ultrasoft, Zval =  6.0
     Generated by new atomic code, or converted to UPF format
     Using radial grid of 1269 points,  4 beta functions with: 
                l(1) =   0
                l(2) =   0
                l(3) =   1
                l(4) =   1
     Q(r) pseudized with 0 coefficients 


     PseudoPot. # 2 for Ti read from file:
     ../../PSP_DIR/Ti.pbe-sp-van_ak.UPF
     MD5 check sum: 8e4df49b7f0d34bbd5052bf3f5ea0213
     Pseudo is Ultrasoft, Zval = 12.0
     Generated by new atomic code, or converted to UPF format
     Using radial grid of  851 points,  6 beta functions with: 
                l(1) =   0
                l(2) =   0
                l(3) =   1
                l(4) =   1
                l(5) =   2
                l(6) =   2
     Q(r) pseudized with  8 coefficients,  rinner =    1.000   1.000   1.000
                                                       1.000   1.000

     PseudoPot. # 3 for Ba read from file:
     ../../PSP_DIR/Ba.pbe-nsp-van.UPF
     MD5 check sum: a011de417d3466d8e94df216395bc359
     Pseudo is Ultrasoft + core correction, Zval = 10.0
     Generated by new atomic code, or converted to UPF format
     Using radial grid of  907 points,  6 beta functions with: 
                l(1) =   0
                l(2) =   0
                l(3) =   1
                l(4) =   1
                l(5) =   2
                l(6) =   2
     Q(r) pseudized with  6 coefficients,  rinner =    1.200   1.200   1.200
                                                       1.200   1.200

     atomic species   valence    mass     pseudopotential
        O              6.00    15.99000     O ( 1.00)
        Ti            12.00    47.88000     Ti( 1.00)
        Ba            10.00   137.33000     Ba( 1.00)

     48 Sym. Ops., with inversion, found



   Cartesian axes

     site n.     atom                  positions (alat units)
         1           Ba  tau(   1) = (   0.0000000   0.0000000   0.0000000  )
         2           Ti  tau(   2) = (   0.5000000   0.5000000   0.5000000  )
         3           O   tau(   3) = (   0.0000000   0.5000000   0.5000000  )
         4           O   tau(   4) = (   0.5000000   0.0000000   0.5000000  )
         5           O   tau(   5) = (   0.5000000   0.5000000   0.0000000  )

     number of k points=    10
                       cart. coord. in units 2pi/alat
        k(    1) = (   0.0833333   0.0833333   0.0833333), wk =   0.0740741
        k(    2) = (   0.0833333   0.0833333   0.2500000), wk =   0.2222222
        k(    3) = (   0.0833333   0.0833333   0.4166667), wk =   0.2222222
        k(    4) = (   0.0833333   0.2500000   0.2500000), wk =   0.2222222
        k(    5) = (   0.0833333   0.2500000   0.4166667), wk =   0.4444444
        k(    6) = (   0.0833333   0.4166667   0.4166667), wk =   0.2222222
        k(    7) = (   0.2500000   0.2500000   0.2500000), wk =   0.0740741
        k(    8) = (   0.2500000   0.2500000   0.4166667), wk =   0.2222222
        k(    9) = (   0.2500000   0.4166667   0.4166667), wk =   0.2222222
        k(   10) = (   0.4166667   0.4166667   0.4166667), wk =   0.0740741

     Dense  grid:    25413 G-vectors     FFT dimensions: (  40,  40,  40)

     Smooth grid:     9045 G-vectors     FFT dimensions: (  25,  25,  25)

     Estimated max dynamical RAM per process >       1.23MB

     Estimated total allocated dynamical RAM >      34.34MB

     Check: negative/imaginary core charge=   -0.000001    0.000000

     Initial potential from superposition of free atoms

     starting charge   38.98495, renormalised to   40.00000
     Starting wfc are   35 randomized atomic wfcs

     total cpu time spent up to now is        0.3 secs

     per-process dynamical memory:    34.2 Mb

     Self-consistent Calculation

     iteration #  1     ecut=    30.00 Ry     beta=0.60
     Davidson diagonalization with overlap
     ethr =  1.00E-02,  avg # of iterations =  2.5

     total cpu time spent up to now is        0.4 secs

     total energy              =    -302.89279638 Ry
     Harris-Foulkes estimate   =    -303.46055057 Ry
     estimated scf accuracy    <       0.79210957 Ry

     iteration #  2     ecut=    30.00 Ry     beta=0.60
     Davidson diagonalization with overlap
     ethr =  1.98E-03,  avg # of iterations =  4.0

     total cpu time spent up to now is        0.6 secs

     total energy              =    -302.35195689 Ry
     Harris-Foulkes estimate   =    -303.81251238 Ry
     estimated scf accuracy    <       5.49692655 Ry

     iteration #  3     ecut=    30.00 Ry     beta=0.60
     Davidson diagonalization with overlap
     ethr =  1.98E-03,  avg # of iterations =  3.3

     total cpu time spent up to now is        0.7 secs

     total energy              =    -303.29290892 Ry
     Harris-Foulkes estimate   =    -303.33642419 Ry
     estimated scf accuracy    <       0.16513337 Ry

     iteration #  4     ecut=    30.00 Ry     beta=0.60
     Davidson diagonalization with overlap
     ethr =  4.13E-04,  avg # of iterations =  1.3

     total cpu time spent up to now is        0.8 secs

     total energy              =    -303.28019211 Ry
     Harris-Foulkes estimate   =    -303.30112683 Ry
     estimated scf accuracy    <       0.06071682 Ry

     iteration #  5     ecut=    30.00 Ry     beta=0.60
     Davidson diagonalization with overlap
     ethr =  1.52E-04,  avg # of iterations =  3.0

     total cpu time spent up to now is        0.9 secs

     total energy              =    -303.29231502 Ry
     Harris-Foulkes estimate   =    -303.29226175 Ry
     estimated scf accuracy    <       0.00032486 Ry

     iteration #  6     ecut=    30.00 Ry     beta=0.60
     Davidson diagonalization with overlap
     ethr =  8.12E-07,  avg # of iterations =  4.1

     total cpu time spent up to now is        1.0 secs

     total energy              =    -303.29230682 Ry
     Harris-Foulkes estimate   =    -303.29253058 Ry
     estimated scf accuracy    <       0.00045182 Ry

     iteration #  7     ecut=    30.00 Ry     beta=0.60
     Davidson diagonalization with overlap
     ethr =  8.12E-07,  avg # of iterations =  3.1

     total cpu time spent up to now is        1.1 secs

     total energy              =    -303.29241911 Ry
     Harris-Foulkes estimate   =    -303.29243506 Ry
     estimated scf accuracy    <       0.00004481 Ry

     iteration #  8     ecut=    30.00 Ry     beta=0.60
     Davidson diagonalization with overlap
     ethr =  1.12E-07,  avg # of iterations =  2.6

     total cpu time spent up to now is        1.2 secs

     total energy              =    -303.29242273 Ry
     Harris-Foulkes estimate   =    -303.29242413 Ry
     estimated scf accuracy    <       0.00000289 Ry

     iteration #  9     ecut=    30.00 Ry     beta=0.60
     Davidson diagonalization with overlap
     ethr =  7.23E-09,  avg # of iterations =  3.3

     total cpu time spent up to now is        1.3 secs

     total energy              =    -303.29242383 Ry
     Harris-Foulkes estimate   =    -303.29242387 Ry
     estimated scf accuracy    <       0.00000013 Ry

     iteration # 10     ecut=    30.00 Ry     beta=0.60
     Davidson diagonalization with overlap
     ethr =  3.20E-10,  avg # of iterations =  2.3

     total cpu time spent up to now is        1.4 secs

          k = 0.0833 0.0833 0.0833     band energies (ev):

   -45.1362 -21.3915 -21.3910 -21.3910 -13.1483  -5.7394  -5.0939  -5.0939
     1.6150   1.6150   1.7658   8.6279   8.8369   8.8369   9.5253   9.5253
     9.9085  10.6167  10.9355  10.9355  13.3927  13.4472  13.4472  15.9634

          k = 0.0833 0.0833 0.2500     band energies (ev):

   -45.1356 -21.4221 -21.3902 -21.3900 -13.0771  -5.8232  -5.0781  -4.9766
     1.6713   1.6834   1.9788   7.8828   8.5576   8.6446   9.1233   9.1292
     9.8254   9.9426  10.6289  10.6362  13.4670  14.2063  14.2144  15.9655

          k = 0.0833 0.0833 0.4167     band energies (ev):

   -45.1350 -21.4522 -21.3892 -21.3889 -13.0035  -5.9916  -5.0620  -4.7490
     1.7288   1.8582   2.0767   7.1154   8.3240   8.3979   8.5848   8.9530
     9.6540   9.8465  10.2710  10.3699  13.5103  14.9319  14.9438  15.9614

          k = 0.0833 0.2500 0.2500     band energies (ev):

   -45.1349 -21.4211 -21.4191 -21.3887 -13.0179  -5.7291  -5.0381  -4.9864
     1.5778   1.6912   2.0936   7.5650   8.0831   8.3167   8.7140   8.9031
     9.5087  10.1144  10.2502  10.7221  14.1821  14.3204  14.5760  16.4884

          k = 0.0833 0.2500 0.4167     band energies (ev):

   -45.1343 -21.4500 -21.4185 -21.3875 -12.9570  -5.7477  -5.0065  -4.8565
     1.5858   1.7657   2.0241   7.0381   7.6938   7.9417   8.4195   8.7820
     9.6136   9.9496  10.1288  10.6879  14.2883  14.9709  15.1090  16.5893

          k = 0.0833 0.4167 0.4167     band energies (ev):

   -45.1337 -21.4478 -21.4477 -21.3866 -12.9094  -5.4954  -4.9775  -4.9334
     1.5342   1.5885   2.0010   6.8796   7.2469   7.2570   8.4421   8.4652
     9.3630  10.2094  10.3590  11.0333  14.9843  15.0205  15.4278  16.7894

          k = 0.2500 0.2500 0.2500     band energies (ev):

   -45.1343 -21.4202 -21.4180 -21.4180 -12.9666  -5.5591  -4.9878  -4.9878
     1.4124   1.4124   2.1593   7.3463   8.0356   8.0356   8.5949   8.8006
     8.8006  10.4268  10.4802  10.4802  14.6727  14.6864  14.6864  17.7482

          k = 0.2500 0.2500 0.4167     band energies (ev):

   -45.1337 -21.4479 -21.4175 -21.4165 -12.9139  -5.4902  -4.9359  -4.8756
     1.2478   1.4297   1.8974   7.0132   7.6982   8.0072   8.0813   8.8044
     8.9705  10.2395  10.5626  10.5981  14.7810  15.1812  15.2293  17.7162

          k = 0.2500 0.4167 0.4167     band energies (ev):

   -45.1331 -21.4463 -21.4460 -21.4160 -12.8698  -5.2195  -4.8923  -4.8673
     1.1280   1.1693   1.5218   6.8799   7.2597   7.9237   8.1137   8.7439
     8.8387  10.4942  10.5994  10.9946  15.2990  15.3129  15.5395  18.0759

          k = 0.4167 0.4167 0.4167     band energies (ev):

   -45.1324 -21.4451 -21.4440 -21.4440 -12.8293  -4.9212  -4.8016  -4.8016
     0.8293   0.8293   1.0111   6.7415   7.2659   7.2659   8.6237   8.9002
     8.9002  10.9244  10.9244  11.0033  15.6592  15.6592  15.6660  18.7507

     highest occupied, lowest unoccupied level (ev):    11.0333   13.3927

!    total energy              =    -303.29242384 Ry
     Harris-Foulkes estimate   =    -303.29242385 Ry
     estimated scf accuracy    <       0.00000002 Ry

     The total energy is the sum of the following terms:

     one-electron contribution =     -64.93620841 Ry
     hartree contribution      =      57.89812586 Ry
     xc contribution           =     -84.34040354 Ry
     ewald contribution        =    -211.91466265 Ry
     scf correction            =       0.00072490 Ry

     iteration # 11     ecut=    30.00 Ry     beta=0.60
     Davidson diagonalization with overlap
     ethr =  5.14E-11,  avg # of iterations =  3.2

     total cpu time spent up to now is        1.5 secs

     total energy              =    -303.29242384 Ry
     Harris-Foulkes estimate   =    -303.29242384 Ry
     estimated scf accuracy    <          7.2E-10 Ry

     iteration # 12     ecut=    30.00 Ry     beta=0.60
     Davidson diagonalization with overlap
     ethr =  1.80E-12,  avg # of iterations =  3.3

     total cpu time spent up to now is        1.7 secs

     total energy              =    -303.29242384 Ry
     Harris-Foulkes estimate   =    -303.29242384 Ry
     estimated scf accuracy    <          1.1E-10 Ry

     iteration # 13     ecut=    30.00 Ry     beta=0.60
     Davidson diagonalization with overlap
     ethr =  2.70E-13,  avg # of iterations =  2.8

     total cpu time spent up to now is        1.8 secs

     total energy              =    -303.29242384 Ry
     Harris-Foulkes estimate   =    -303.29242384 Ry
     estimated scf accuracy    <          8.7E-12 Ry

     iteration # 14     ecut=    30.00 Ry     beta=0.60
     Davidson diagonalization with overlap
     ethr =  1.00E-13,  avg # of iterations =  1.0

     total cpu time spent up to now is        1.8 secs

     total energy              =    -303.29242384 Ry
     Harris-Foulkes estimate   =    -303.29242384 Ry
     estimated scf accuracy    <          1.3E-12 Ry

     iteration # 15     ecut=    30.00 Ry     beta=0.60
     Davidson diagonalization with overlap
     ethr =  1.00E-13,  avg # of iterations =  1.0

     total cpu time spent up to now is        1.9 secs

     End of self-consistent calculation

          k = 0.0833 0.0833 0.0833 (  1126 PWs)   bands (ev):

   -45.1356 -21.3910 -21.3905 -21.3905 -13.1485  -5.7394  -5.0939  -5.0939
     1.6149   1.6149   1.7656   8.6280   8.8369   8.8369   9.5254   9.5254
     9.9085  10.6167  10.9355  10.9355  13.3931  13.4476  13.4476  15.9638

          k = 0.0833 0.0833 0.2500 (  1133 PWs)   bands (ev):

   -45.1351 -21.4216 -21.3897 -21.3895 -13.0773  -5.8232  -5.0780  -4.9766
     1.6712   1.6833   1.9787   7.8829   8.5576   8.6447   9.1233   9.1293
     9.8254   9.9427  10.6289  10.6362  13.4674  14.2067  14.2147  15.9659

          k = 0.0833 0.0833 0.4167 (  1135 PWs)   bands (ev):

   -45.1345 -21.4517 -21.3887 -21.3884 -13.0037  -5.9916  -5.0620  -4.7489
     1.7287   1.8580   2.0766   7.1155   8.3240   8.3979   8.5848   8.9531
     9.6540   9.8465  10.2711  10.3699  13.5107  14.9322  14.9442  15.9618

          k = 0.0833 0.2500 0.2500 (  1122 PWs)   bands (ev):

   -45.1344 -21.4206 -21.4186 -21.3882 -13.0182  -5.7290  -5.0380  -4.9864
     1.5776   1.6910   2.0934   7.5651   8.0832   8.3168   8.7140   8.9032
     9.5087  10.1144  10.2503  10.7221  14.1825  14.3208  14.5763  16.4888

          k = 0.0833 0.2500 0.4167 (  1124 PWs)   bands (ev):

   -45.1338 -21.4495 -21.4180 -21.3870 -12.9572  -5.7477  -5.0065  -4.8565
     1.5856   1.7655   2.0239   7.0382   7.6939   7.9418   8.4196   8.7821
     9.6137   9.9497  10.1289  10.6879  14.2887  14.9713  15.1093  16.5897

          k = 0.0833 0.4167 0.4167 (  1121 PWs)   bands (ev):

   -45.1332 -21.4473 -21.4472 -21.3861 -12.9096  -5.4954  -4.9775  -4.9333
     1.5340   1.5883   2.0009   6.8796   7.2470   7.2571   8.4422   8.4653
     9.3630  10.2094  10.3590  11.0333  14.9847  15.0208  15.4282  16.7898

          k = 0.2500 0.2500 0.2500 (  1126 PWs)   bands (ev):

   -45.1338 -21.4197 -21.4175 -21.4175 -12.9668  -5.5591  -4.9878  -4.9878
     1.4122   1.4122   2.1592   7.3464   8.0357   8.0357   8.5949   8.8006
     8.8006  10.4268  10.4802  10.4802  14.6731  14.6867  14.6867  17.7486

          k = 0.2500 0.2500 0.4167 (  1118 PWs)   bands (ev):

   -45.1331 -21.4474 -21.4170 -21.4160 -12.9141  -5.4902  -4.9359  -4.8755
     1.2476   1.4296   1.8973   7.0133   7.6983   8.0073   8.0814   8.8045
     8.9706  10.2395  10.5626  10.5982  14.7814  15.1815  15.2297  17.7165

          k = 0.2500 0.4167 0.4167 (  1118 PWs)   bands (ev):

   -45.1325 -21.4458 -21.4455 -21.4155 -12.8700  -5.2195  -4.8923  -4.8673
     1.1278   1.1692   1.5217   6.8800   7.2598   7.9237   8.1138   8.7439
     8.8387  10.4942  10.5994  10.9946  15.2994  15.3133  15.5399  18.0762

          k = 0.4167 0.4167 0.4167 (  1106 PWs)   bands (ev):

   -45.1319 -21.4446 -21.4435 -21.4435 -12.8295  -4.9211  -4.8016  -4.8016
     0.8292   0.8292   1.0109   6.7416   7.2660   7.2660   8.6237   8.9002
     8.9002  10.9244  10.9244  11.0033  15.6596  15.6596  15.6664  18.7507

     highest occupied, lowest unoccupied level (ev):    11.0333   13.3931

!    total energy              =    -303.29242384 Ry
     Harris-Foulkes estimate   =    -303.29242384 Ry
     estimated scf accuracy    <          1.0E-14 Ry

     The total energy is the sum of the following terms:

     one-electron contribution =     -64.93554162 Ry
     hartree contribution      =      57.89820073 Ry
     xc contribution           =     -84.34042031 Ry
     ewald contribution        =    -211.91466265 Ry

     convergence has been achieved in  15 iterations

     Forces acting on atoms (cartesian axes, Ry/au):

     atom    1 type  3   force =     0.00000000    0.00000000    0.00000000
     atom    2 type  2   force =     0.00000000    0.00000000    0.00000000
     atom    3 type  1   force =     0.00000000   -0.00000000    0.00000000
     atom    4 type  1   force =     0.00000000   -0.00000000    0.00000000
     atom    5 type  1   force =     0.00000000    0.00000000   -0.00000000

     Total force =     0.000000     Total SCF correction =     0.000000


     Computing stress (Cartesian axis) and pressure

          total   stress  (Ry/bohr**3)                   (kbar)     P=   70.14
   0.00047682   0.00000000   0.00000000         70.14      0.00      0.00
   0.00000000   0.00047682   0.00000000          0.00     70.14      0.00
   0.00000000   0.00000000   0.00047682          0.00      0.00     70.14


     Writing output data file bto.save
 
     init_run     :      0.09s CPU      0.11s WALL (       1 calls)
     electrons    :      1.52s CPU      1.59s WALL (       1 calls)
     forces       :      0.02s CPU      0.02s WALL (       1 calls)
     stress       :      0.04s CPU      0.05s WALL (       1 calls)

     Called by init_run:
     wfcinit      :      0.03s CPU      0.03s WALL (       1 calls)
     potinit      :      0.01s CPU      0.01s WALL (       1 calls)

     Called by electrons:
     c_bands      :      1.23s CPU      1.28s WALL (      15 calls)
     sum_band     :      0.18s CPU      0.20s WALL (      15 calls)
     v_of_rho     :      0.03s CPU      0.03s WALL (      16 calls)
     newd         :      0.07s CPU      0.07s WALL (      16 calls)
     mix_rho      :      0.01s CPU      0.01s WALL (      15 calls)

     Called by c_bands:
     init_us_2    :      0.00s CPU      0.01s WALL (     330 calls)
     cegterg      :      1.18s CPU      1.23s WALL (     150 calls)

     Called by sum_band:
     sum_band:bec :      0.00s CPU      0.00s WALL (     150 calls)
     addusdens    :      0.07s CPU      0.07s WALL (      15 calls)

     Called by *egterg:
     h_psi        :      0.47s CPU      0.52s WALL (     568 calls)
     s_psi        :      0.01s CPU      0.01s WALL (     568 calls)
     g_psi        :      0.00s CPU      0.00s WALL (     408 calls)
     cdiaghg      :      0.54s CPU      0.52s WALL (     558 calls)

     Called by h_psi:
     h_psi:pot    :      0.47s CPU      0.51s WALL (     568 calls)
     h_psi:calbec :      0.04s CPU      0.04s WALL (     568 calls)
     vloc_psi     :      0.40s CPU      0.45s WALL (     568 calls)
     add_vuspsi   :      0.02s CPU      0.01s WALL (     568 calls)

     General routines
     calbec       :      0.07s CPU      0.06s WALL (     768 calls)
     fft          :      0.02s CPU      0.02s WALL (     277 calls)
     ffts         :      0.00s CPU      0.01s WALL (      31 calls)
     fftw         :      0.45s CPU      0.50s WALL (   22216 calls)
     interpolate  :      0.01s CPU      0.01s WALL (      31 calls)
     davcio       :      0.00s CPU      0.00s WALL (      10 calls)
 
     Parallel routines
     fft_scatter  :      0.33s CPU      0.36s WALL (   22524 calls)
 
     PWSCF        :     1.82s CPU         2.06s WALL

 
   This run was terminated on:  11:14:29  31Dec2017            

=------------------------------------------------------------------------------=
   JOB DONE.
=------------------------------------------------------------------------------=
