
     Program PWSCF v.6.1 (svn rev. 13369) starts on 31Dec2017 at 11:14:31 

     This program is part of the open-source Quantum ESPRESSO suite
     for quantum simulation of materials; please cite
         "P. Giannozzi et al., J. Phys.:Condens. Matter 21 395502 (2009);
          URL http://www.quantum-espresso.org", 
     in publications or presentations arising from this work. More details at
     http://www.quantum-espresso.org/quote

     Parallel version (MPI), running on    28 processors
     R & G space division:  proc/nbgrp/npool/nimage =      28
     Waiting for input...
     Reading input from standard input

     Current dimensions of program PWSCF are:
     Max number of different atomic species (ntypx) = 10
     Max number of k-points (npk) =  40000
     Max angular momentum in pseudopotentials (lmaxx) =  3
               file O.pbe-rrkjus.UPF: wavefunction(s)  2S renormalized

     Subspace diagonalization in iterative solution of the eigenvalue problem:
     a serial algorithm will be used

 
     Parallelization info
     --------------------
     sticks:   dense  smooth     PW     G-vecs:    dense   smooth      PW
     Min          49      24      7                 1396      492      81
     Max          50      25      8                 1398      497      84
     Sum        1389     697    213                39127    13805    2301
 

     Title: 
     cubic BaTiO3 at 7.40 lattice parameter. xc=PBE                             


     bravais-lattice index     =            1
     lattice parameter (alat)  =       7.4000  a.u.
     unit-cell volume          =     405.2240 (a.u.)^3
     number of atoms/cell      =            5
     number of atomic types    =            3
     number of electrons       =        40.00
     number of Kohn-Sham states=           24
     kinetic-energy cutoff     =      40.0000  Ry
     charge density cutoff     =     320.0000  Ry
     convergence threshold     =      1.0E-12
     mixing beta               =       0.6000
     number of iterations used =            8  plain     mixing
     Exchange-correlation      =  SLA  PW   PBE  PBE ( 1  4  3  4 0 0)

     celldm(1)=   7.400000  celldm(2)=   0.000000  celldm(3)=   0.000000
     celldm(4)=   0.000000  celldm(5)=   0.000000  celldm(6)=   0.000000

     crystal axes: (cart. coord. in units of alat)
               a(1) = (   1.000000   0.000000   0.000000 )  
               a(2) = (   0.000000   1.000000   0.000000 )  
               a(3) = (   0.000000   0.000000   1.000000 )  

     reciprocal axes: (cart. coord. in units 2 pi/alat)
               b(1) = (  1.000000  0.000000  0.000000 )  
               b(2) = (  0.000000  1.000000  0.000000 )  
               b(3) = (  0.000000  0.000000  1.000000 )  


     PseudoPot. # 1 for O  read from file:
     ../../PSP_DIR/O.pbe-rrkjus.UPF
     MD5 check sum: 390ba29e75625707450f3bd3f0eb6be9
     Pseudo is Ultrasoft, Zval =  6.0
     Generated by new atomic code, or converted to UPF format
     Using radial grid of 1269 points,  4 beta functions with: 
                l(1) =   0
                l(2) =   0
                l(3) =   1
                l(4) =   1
     Q(r) pseudized with 0 coefficients 


     PseudoPot. # 2 for Ti read from file:
     ../../PSP_DIR/Ti.pbe-sp-van_ak.UPF
     MD5 check sum: 8e4df49b7f0d34bbd5052bf3f5ea0213
     Pseudo is Ultrasoft, Zval = 12.0
     Generated by new atomic code, or converted to UPF format
     Using radial grid of  851 points,  6 beta functions with: 
                l(1) =   0
                l(2) =   0
                l(3) =   1
                l(4) =   1
                l(5) =   2
                l(6) =   2
     Q(r) pseudized with  8 coefficients,  rinner =    1.000   1.000   1.000
                                                       1.000   1.000

     PseudoPot. # 3 for Ba read from file:
     ../../PSP_DIR/Ba.pbe-nsp-van.UPF
     MD5 check sum: a011de417d3466d8e94df216395bc359
     Pseudo is Ultrasoft + core correction, Zval = 10.0
     Generated by new atomic code, or converted to UPF format
     Using radial grid of  907 points,  6 beta functions with: 
                l(1) =   0
                l(2) =   0
                l(3) =   1
                l(4) =   1
                l(5) =   2
                l(6) =   2
     Q(r) pseudized with  6 coefficients,  rinner =    1.200   1.200   1.200
                                                       1.200   1.200

     atomic species   valence    mass     pseudopotential
        O              6.00    15.99000     O ( 1.00)
        Ti            12.00    47.88000     Ti( 1.00)
        Ba            10.00   137.33000     Ba( 1.00)

     48 Sym. Ops., with inversion, found



   Cartesian axes

     site n.     atom                  positions (alat units)
         1           Ba  tau(   1) = (   0.0000000   0.0000000   0.0000000  )
         2           Ti  tau(   2) = (   0.5000000   0.5000000   0.5000000  )
         3           O   tau(   3) = (   0.0000000   0.5000000   0.5000000  )
         4           O   tau(   4) = (   0.5000000   0.0000000   0.5000000  )
         5           O   tau(   5) = (   0.5000000   0.5000000   0.0000000  )

     number of k points=    10
                       cart. coord. in units 2pi/alat
        k(    1) = (   0.0833333   0.0833333   0.0833333), wk =   0.0740741
        k(    2) = (   0.0833333   0.0833333   0.2500000), wk =   0.2222222
        k(    3) = (   0.0833333   0.0833333   0.4166667), wk =   0.2222222
        k(    4) = (   0.0833333   0.2500000   0.2500000), wk =   0.2222222
        k(    5) = (   0.0833333   0.2500000   0.4166667), wk =   0.4444444
        k(    6) = (   0.0833333   0.4166667   0.4166667), wk =   0.2222222
        k(    7) = (   0.2500000   0.2500000   0.2500000), wk =   0.0740741
        k(    8) = (   0.2500000   0.2500000   0.4166667), wk =   0.2222222
        k(    9) = (   0.2500000   0.4166667   0.4166667), wk =   0.2222222
        k(   10) = (   0.4166667   0.4166667   0.4166667), wk =   0.0740741

     Dense  grid:    39127 G-vectors     FFT dimensions: (  45,  45,  45)

     Smooth grid:    13805 G-vectors     FFT dimensions: (  30,  30,  30)

     Estimated max dynamical RAM per process >       1.66MB

     Estimated total allocated dynamical RAM >      46.39MB

     Initial potential from superposition of free atoms

     starting charge   38.98495, renormalised to   40.00000
     Starting wfc are   35 randomized atomic wfcs

     total cpu time spent up to now is        0.3 secs

     per-process dynamical memory:    36.6 Mb

     Self-consistent Calculation

     iteration #  1     ecut=    40.00 Ry     beta=0.60
     Davidson diagonalization with overlap
     ethr =  1.00E-02,  avg # of iterations =  2.6

     total cpu time spent up to now is        0.5 secs

     total energy              =    -302.89949388 Ry
     Harris-Foulkes estimate   =    -303.47031262 Ry
     estimated scf accuracy    <       0.79638444 Ry

     iteration #  2     ecut=    40.00 Ry     beta=0.60
     Davidson diagonalization with overlap
     ethr =  1.99E-03,  avg # of iterations =  4.0

     total cpu time spent up to now is        0.6 secs

     total energy              =    -302.35914428 Ry
     Harris-Foulkes estimate   =    -303.82897007 Ry
     estimated scf accuracy    <       5.53668325 Ry

     iteration #  3     ecut=    40.00 Ry     beta=0.60
     Davidson diagonalization with overlap
     ethr =  1.99E-03,  avg # of iterations =  3.4

     total cpu time spent up to now is        0.8 secs

     total energy              =    -303.30486063 Ry
     Harris-Foulkes estimate   =    -303.34905683 Ry
     estimated scf accuracy    <       0.16632139 Ry

     iteration #  4     ecut=    40.00 Ry     beta=0.60
     Davidson diagonalization with overlap
     ethr =  4.16E-04,  avg # of iterations =  1.4

     total cpu time spent up to now is        0.9 secs

     total energy              =    -303.29188276 Ry
     Harris-Foulkes estimate   =    -303.31324505 Ry
     estimated scf accuracy    <       0.06171338 Ry

     iteration #  5     ecut=    40.00 Ry     beta=0.60
     Davidson diagonalization with overlap
     ethr =  1.54E-04,  avg # of iterations =  3.1

     total cpu time spent up to now is        1.0 secs

     total energy              =    -303.30457045 Ry
     Harris-Foulkes estimate   =    -303.30453193 Ry
     estimated scf accuracy    <       0.00037610 Ry

     iteration #  6     ecut=    40.00 Ry     beta=0.60
     Davidson diagonalization with overlap
     ethr =  9.40E-07,  avg # of iterations =  4.2

     total cpu time spent up to now is        1.2 secs

     total energy              =    -303.30459512 Ry
     Harris-Foulkes estimate   =    -303.30480717 Ry
     estimated scf accuracy    <       0.00043566 Ry

     iteration #  7     ecut=    40.00 Ry     beta=0.60
     Davidson diagonalization with overlap
     ethr =  9.40E-07,  avg # of iterations =  3.3

     total cpu time spent up to now is        1.4 secs

     total energy              =    -303.30469867 Ry
     Harris-Foulkes estimate   =    -303.30470840 Ry
     estimated scf accuracy    <       0.00003020 Ry

     iteration #  8     ecut=    40.00 Ry     beta=0.60
     Davidson diagonalization with overlap
     ethr =  7.55E-08,  avg # of iterations =  2.2

     total cpu time spent up to now is        1.5 secs

     total energy              =    -303.30470137 Ry
     Harris-Foulkes estimate   =    -303.30470259 Ry
     estimated scf accuracy    <       0.00000267 Ry

     iteration #  9     ecut=    40.00 Ry     beta=0.60
     Davidson diagonalization with overlap
     ethr =  6.69E-09,  avg # of iterations =  3.7

     total cpu time spent up to now is        1.6 secs

     total energy              =    -303.30470217 Ry
     Harris-Foulkes estimate   =    -303.30470219 Ry
     estimated scf accuracy    <       0.00000006 Ry

     iteration # 10     ecut=    40.00 Ry     beta=0.60
     Davidson diagonalization with overlap
     ethr =  1.58E-10,  avg # of iterations =  2.9

     total cpu time spent up to now is        1.8 secs

          k = 0.0833 0.0833 0.0833     band energies (ev):

   -45.1111 -21.3876 -21.3871 -21.3871 -13.1510  -5.7374  -5.0907  -5.0907
     1.6124   1.6124   1.7633   8.6227   8.8323   8.8323   9.5227   9.5227
     9.9064  10.6145  10.9322  10.9322  13.3870  13.4411  13.4411  15.9499

          k = 0.0833 0.0833 0.2500     band energies (ev):

   -45.1105 -21.4183 -21.3861 -21.3859 -13.0798  -5.8212  -5.0747  -4.9739
     1.6688   1.6809   1.9765   7.8801   8.5534   8.6403   9.1214   9.1269
     9.8232   9.9402  10.6265  10.6334  13.4606  14.1995  14.2075  15.9525

          k = 0.0833 0.0833 0.4167     band energies (ev):

   -45.1098 -21.4488 -21.3846 -21.3845 -13.0061  -5.9896  -5.0587  -4.7468
     1.7263   1.8558   2.0746   7.1150   8.3204   8.3936   8.5825   8.9504
     9.6515   9.8444  10.2689  10.3683  13.5043  14.9247  14.9360  15.9493

          k = 0.0833 0.2500 0.2500     band energies (ev):

   -45.1098 -21.4171 -21.4159 -21.3846 -13.0206  -5.7271  -5.0355  -4.9835
     1.5753   1.6886   2.0913   7.5614   8.0813   8.3139   8.7103   8.9012
     9.5065  10.1118  10.2480  10.7179  14.1753  14.3135  14.5691  16.4759

          k = 0.0833 0.2500 0.4167     band energies (ev):

   -45.1092 -21.4468 -21.4148 -21.3833 -12.9597  -5.7457  -5.0036  -4.8545
     1.5832   1.7633   2.0218   7.0372   7.6914   7.9395   8.4160   8.7800
     9.6109   9.9471  10.1264  10.6854  14.2814  14.9634  15.1010  16.5770

          k = 0.0833 0.4167 0.4167     band energies (ev):

   -45.1086 -21.4448 -21.4446 -21.3819 -12.9121  -5.4929  -4.9757  -4.9312
     1.5317   1.5860   1.9986   6.8781   7.2439   7.2576   8.4401   8.4639
     9.3595  10.2066  10.3563  11.0309  14.9767  15.0131  15.4196  16.7775

          k = 0.2500 0.2500 0.2500     band energies (ev):

   -45.1092 -21.4157 -21.4144 -21.4144 -12.9693  -5.5572  -4.9852  -4.9852
     1.4097   1.4097   2.1571   7.3425   8.0338   8.0338   8.5933   8.7983
     8.7983  10.4243  10.4776  10.4776  14.6664  14.6796  14.6796  17.7356

          k = 0.2500 0.2500 0.4167     band energies (ev):

   -45.1086 -21.4450 -21.4137 -21.4131 -12.9165  -5.4882  -4.9331  -4.8736
     1.2449   1.4271   1.8950   7.0120   7.6960   8.0053   8.0790   8.8018
     8.9684  10.2372  10.5598  10.5952  14.7739  15.1731  15.2214  17.7034

          k = 0.2500 0.4167 0.4167     band energies (ev):

   -45.1080 -21.4434 -21.4431 -21.4123 -12.8724  -5.2173  -4.8905  -4.8652
     1.1251   1.1666   1.5191   6.8781   7.2604   7.9212   8.1113   8.7414
     8.8364  10.4918  10.5968  10.9922  15.2910  15.3050  15.5310  18.0639

          k = 0.4167 0.4167 0.4167     band energies (ev):

   -45.1073 -21.4419 -21.4415 -21.4415 -12.8320  -4.9192  -4.7996  -4.7996
     0.8262   0.8262   1.0081   6.7390   7.2667   7.2667   8.6211   8.8976
     8.8976  10.9220  10.9220  11.0001  15.6508  15.6508  15.6574  18.7450

     highest occupied, lowest unoccupied level (ev):    11.0309   13.3870

!    total energy              =    -303.30470219 Ry
     Harris-Foulkes estimate   =    -303.30470219 Ry
     estimated scf accuracy    <          4.1E-09 Ry

     The total energy is the sum of the following terms:

     one-electron contribution =     -64.95422723 Ry
     hartree contribution      =      57.91377159 Ry
     xc contribution           =     -84.34972448 Ry
     ewald contribution        =    -211.91466263 Ry
     scf correction            =       0.00014055 Ry

     iteration # 11     ecut=    40.00 Ry     beta=0.60
     Davidson diagonalization with overlap
     ethr =  1.02E-11,  avg # of iterations =  3.6

     total cpu time spent up to now is        1.9 secs

     total energy              =    -303.30470219 Ry
     Harris-Foulkes estimate   =    -303.30470219 Ry
     estimated scf accuracy    <          1.0E-09 Ry

     iteration # 12     ecut=    40.00 Ry     beta=0.60
     Davidson diagonalization with overlap
     ethr =  2.59E-12,  avg # of iterations =  2.8

     total cpu time spent up to now is        2.0 secs

     total energy              =    -303.30470219 Ry
     Harris-Foulkes estimate   =    -303.30470219 Ry
     estimated scf accuracy    <          3.0E-12 Ry

     iteration # 13     ecut=    40.00 Ry     beta=0.60
     Davidson diagonalization with overlap
     ethr =  1.00E-13,  avg # of iterations =  3.2

     total cpu time spent up to now is        2.2 secs

     total energy              =    -303.30470219 Ry
     Harris-Foulkes estimate   =    -303.30470219 Ry
     estimated scf accuracy    <          1.3E-12 Ry

     iteration # 14     ecut=    40.00 Ry     beta=0.60
     Davidson diagonalization with overlap
     ethr =  1.00E-13,  avg # of iterations =  1.0

     total cpu time spent up to now is        2.3 secs

     End of self-consistent calculation

          k = 0.0833 0.0833 0.0833 (  1755 PWs)   bands (ev):

   -45.1109 -21.3874 -21.3869 -21.3869 -13.1510  -5.7374  -5.0907  -5.0907
     1.6124   1.6124   1.7632   8.6227   8.8323   8.8323   9.5227   9.5227
     9.9064  10.6145  10.9322  10.9322  13.3872  13.4413  13.4413  15.9500

          k = 0.0833 0.0833 0.2500 (  1751 PWs)   bands (ev):

   -45.1103 -21.4181 -21.3859 -21.3857 -13.0799  -5.8212  -5.0747  -4.9739
     1.6688   1.6809   1.9765   7.8801   8.5534   8.6403   9.1214   9.1269
     9.8232   9.9401  10.6265  10.6334  13.4608  14.1996  14.2077  15.9527

          k = 0.0833 0.0833 0.4167 (  1733 PWs)   bands (ev):

   -45.1096 -21.4487 -21.3844 -21.3843 -13.0062  -5.9896  -5.0587  -4.7468
     1.7263   1.8558   2.0746   7.1150   8.3204   8.3936   8.5825   8.9504
     9.6516   9.8444  10.2689  10.3683  13.5044  14.9249  14.9362  15.9494

          k = 0.0833 0.2500 0.2500 (  1734 PWs)   bands (ev):

   -45.1096 -21.4169 -21.4157 -21.3844 -13.0207  -5.7271  -5.0355  -4.9835
     1.5753   1.6886   2.0913   7.5614   8.0813   8.3140   8.7103   8.9012
     9.5065  10.1118  10.2480  10.7179  14.1754  14.3137  14.5692  16.4760

          k = 0.0833 0.2500 0.4167 (  1730 PWs)   bands (ev):

   -45.1090 -21.4467 -21.4146 -21.3831 -12.9597  -5.7457  -5.0036  -4.8545
     1.5832   1.7633   2.0218   7.0372   7.6914   7.9395   8.4160   8.7800
     9.6109   9.9471  10.1264  10.6854  14.2815  14.9635  15.1011  16.5771

          k = 0.0833 0.4167 0.4167 (  1715 PWs)   bands (ev):

   -45.1084 -21.4447 -21.4445 -21.3818 -12.9121  -5.4929  -4.9757  -4.9312
     1.5317   1.5860   1.9986   6.8781   7.2439   7.2577   8.4401   8.4639
     9.3595  10.2066  10.3563  11.0309  14.9768  15.0132  15.4197  16.7776

          k = 0.2500 0.2500 0.2500 (  1722 PWs)   bands (ev):

   -45.1090 -21.4155 -21.4142 -21.4142 -12.9693  -5.5572  -4.9852  -4.9852
     1.4097   1.4097   2.1571   7.3425   8.0338   8.0338   8.5933   8.7983
     8.7983  10.4243  10.4776  10.4776  14.6665  14.6797  14.6797  17.7357

          k = 0.2500 0.2500 0.4167 (  1727 PWs)   bands (ev):

   -45.1084 -21.4449 -21.4135 -21.4129 -12.9166  -5.4882  -4.9331  -4.8736
     1.2449   1.4271   1.8950   7.0120   7.6960   8.0054   8.0790   8.8018
     8.9685  10.2372  10.5598  10.5952  14.7740  15.1733  15.2215  17.7035

          k = 0.2500 0.4167 0.4167 (  1735 PWs)   bands (ev):

   -45.1078 -21.4432 -21.4430 -21.4121 -12.8724  -5.2174  -4.8905  -4.8652
     1.1251   1.1666   1.5191   6.8781   7.2605   7.9212   8.1114   8.7415
     8.8364  10.4918  10.5968  10.9922  15.2911  15.3051  15.5312  18.0640

          k = 0.4167 0.4167 0.4167 (  1727 PWs)   bands (ev):

   -45.1071 -21.4417 -21.4413 -21.4413 -12.8320  -4.9192  -4.7996  -4.7996
     0.8262   0.8262   1.0081   6.7390   7.2667   7.2667   8.6212   8.8976
     8.8976  10.9220  10.9220  11.0001  15.6509  15.6509  15.6575  18.7450

     highest occupied, lowest unoccupied level (ev):    11.0309   13.3872

!    total energy              =    -303.30470219 Ry
     Harris-Foulkes estimate   =    -303.30470219 Ry
     estimated scf accuracy    <          3.8E-13 Ry

     The total energy is the sum of the following terms:

     one-electron contribution =     -64.95405467 Ry
     hartree contribution      =      57.91374097 Ry
     xc contribution           =     -84.34972586 Ry
     ewald contribution        =    -211.91466263 Ry

     convergence has been achieved in  14 iterations

     Forces acting on atoms (cartesian axes, Ry/au):

     atom    1 type  3   force =     0.00000000    0.00000000    0.00000000
     atom    2 type  2   force =     0.00000000    0.00000000    0.00000000
     atom    3 type  1   force =     0.00000000    0.00000000   -0.00000000
     atom    4 type  1   force =     0.00000000    0.00000000    0.00000000
     atom    5 type  1   force =     0.00000000    0.00000000    0.00000000

     Total force =     0.000000     Total SCF correction =     0.000000


     Computing stress (Cartesian axis) and pressure

          total   stress  (Ry/bohr**3)                   (kbar)     P=   82.87
   0.00056335   0.00000000   0.00000000         82.87      0.00      0.00
   0.00000000   0.00056335   0.00000000          0.00     82.87      0.00
   0.00000000   0.00000000   0.00056335          0.00      0.00     82.87


     Writing output data file bto.save
 
     init_run     :      0.11s CPU      0.13s WALL (       1 calls)
     electrons    :      1.87s CPU      1.93s WALL (       1 calls)
     forces       :      0.03s CPU      0.03s WALL (       1 calls)
     stress       :      0.06s CPU      0.07s WALL (       1 calls)

     Called by init_run:
     wfcinit      :      0.04s CPU      0.04s WALL (       1 calls)
     potinit      :      0.01s CPU      0.01s WALL (       1 calls)

     Called by electrons:
     c_bands      :      1.44s CPU      1.48s WALL (      14 calls)
     sum_band     :      0.28s CPU      0.28s WALL (      14 calls)
     v_of_rho     :      0.03s CPU      0.03s WALL (      15 calls)
     newd         :      0.11s CPU      0.12s WALL (      15 calls)
     mix_rho      :      0.01s CPU      0.01s WALL (      14 calls)

     Called by c_bands:
     init_us_2    :      0.01s CPU      0.01s WALL (     310 calls)
     cegterg      :      1.40s CPU      1.42s WALL (     140 calls)

     Called by sum_band:
     sum_band:bec :      0.00s CPU      0.00s WALL (     140 calls)
     addusdens    :      0.12s CPU      0.12s WALL (      14 calls)

     Called by *egterg:
     h_psi        :      0.66s CPU      0.71s WALL (     564 calls)
     s_psi        :      0.02s CPU      0.01s WALL (     564 calls)
     g_psi        :      0.00s CPU      0.00s WALL (     414 calls)
     cdiaghg      :      0.58s CPU      0.53s WALL (     554 calls)

     Called by h_psi:
     h_psi:pot    :      0.66s CPU      0.71s WALL (     564 calls)
     h_psi:calbec :      0.05s CPU      0.05s WALL (     564 calls)
     vloc_psi     :      0.59s CPU      0.65s WALL (     564 calls)
     add_vuspsi   :      0.01s CPU      0.02s WALL (     564 calls)

     General routines
     calbec       :      0.07s CPU      0.06s WALL (     754 calls)
     fft          :      0.02s CPU      0.03s WALL (     261 calls)
     ffts         :      0.00s CPU      0.00s WALL (      29 calls)
     fftw         :      0.65s CPU      0.71s WALL (   21046 calls)
     interpolate  :      0.01s CPU      0.01s WALL (      29 calls)
     davcio       :      0.00s CPU      0.00s WALL (      10 calls)
 
     Parallel routines
     fft_scatter  :      0.43s CPU      0.46s WALL (   21336 calls)
 
     PWSCF        :     2.24s CPU         2.46s WALL

 
   This run was terminated on:  11:14:33  31Dec2017            

=------------------------------------------------------------------------------=
   JOB DONE.
=------------------------------------------------------------------------------=
