
     Program PWSCF v.6.1 (svn rev. 13369) starts on  6Jan2018 at 14: 6:47 

     This program is part of the open-source Quantum ESPRESSO suite
     for quantum simulation of materials; please cite
         "P. Giannozzi et al., J. Phys.:Condens. Matter 21 395502 (2009);
          URL http://www.quantum-espresso.org", 
     in publications or presentations arising from this work. More details at
     http://www.quantum-espresso.org/quote

     Parallel version (MPI), running on    28 processors
     R & G space division:  proc/nbgrp/npool/nimage =      28
     Waiting for input...
     Reading input from standard input

     Current dimensions of program PWSCF are:
     Max number of different atomic species (ntypx) = 10
     Max number of k-points (npk) =  40000
     Max angular momentum in pseudopotentials (lmaxx) =  3

     Subspace diagonalization in iterative solution of the eigenvalue problem:
     a serial algorithm will be used

 
     Parallelization info
     --------------------
     sticks:   dense  smooth     PW     G-vecs:    dense   smooth      PW
     Min         125      62     17                 5539     1956     291
     Max         126      63     18                 5541     1961     296
     Sum        3505    1749    489               155139    54795    8217
 

     Title: 
     cubic BaTiO3 at 7.40 lattice parameter. xc=PZ                              


     bravais-lattice index     =            1
     lattice parameter (alat)  =       7.4000  a.u.
     unit-cell volume          =     405.2240 (a.u.)^3
     number of atoms/cell      =            5
     number of atomic types    =            3
     number of electrons       =        40.00
     number of Kohn-Sham states=           24
     kinetic-energy cutoff     =     100.0000  Ry
     charge density cutoff     =     800.0000  Ry
     convergence threshold     =      1.0E-12
     mixing beta               =       0.6000
     number of iterations used =            8  plain     mixing
     Exchange-correlation      = SLA-PZ-NOGX-NOGC ( 1  1  0  0 0 0)
     nstep                     =           50


     celldm(1)=   7.400000  celldm(2)=   0.000000  celldm(3)=   0.000000
     celldm(4)=   0.000000  celldm(5)=   0.000000  celldm(6)=   0.000000

     crystal axes: (cart. coord. in units of alat)
               a(1) = (   1.000000   0.000000   0.000000 )  
               a(2) = (   0.000000   1.000000   0.000000 )  
               a(3) = (   0.000000   0.000000   1.000000 )  

     reciprocal axes: (cart. coord. in units 2 pi/alat)
               b(1) = (  1.000000  0.000000  0.000000 )  
               b(2) = (  0.000000  1.000000  0.000000 )  
               b(3) = (  0.000000  0.000000  1.000000 )  


     PseudoPot. # 1 for O  read from file:
     ../../PSP_DIR/O.pz-van_ak.UPF
     MD5 check sum: d814fcb982dd9af4fc6452aae6bb9318
     Pseudo is Ultrasoft, Zval =  6.0
     Generated by new atomic code, or converted to UPF format
     Using radial grid of  737 points,  4 beta functions with: 
                l(1) =   0
                l(2) =   0
                l(3) =   1
                l(4) =   1
     Q(r) pseudized with  8 coefficients,  rinner =    0.800   0.800   0.800


     PseudoPot. # 2 for Ti read from file:
     ../../PSP_DIR/Ti.pz-sp-van_ak.UPF
     MD5 check sum: 545d0e6e05332b8871a8093f427cb0ca
     Pseudo is Ultrasoft, Zval = 12.0
     Generated by new atomic code, or converted to UPF format
     Using radial grid of  851 points,  6 beta functions with: 
                l(1) =   0
                l(2) =   0
                l(3) =   1
                l(4) =   1
                l(5) =   2
                l(6) =   2
     Q(r) pseudized with  8 coefficients,  rinner =    1.000   1.000   1.000
                                                       1.000   1.000

     PseudoPot. # 3 for Ba read from file:
     ../../PSP_DIR/Ba.pz-sp-hgh.UPF
     MD5 check sum: 155c4e4bbe33bd45901c985a874b3acf
     Pseudo is Norm-conserving, Zval = 10.0
     Generated in analytical, separable form
     Using radial grid of 1251 points,  6 beta functions with: 
                l(1) =   0
                l(2) =   0
                l(3) =   1
                l(4) =   1
                l(5) =   2
                l(6) =   3

     atomic species   valence    mass     pseudopotential
        O              6.00    15.99000     O ( 1.00)
        Ti            12.00    47.88000     Ti( 1.00)
        Ba            10.00   137.33000     Ba( 1.00)

      8 Sym. Ops. (no inversion) found



   Cartesian axes

     site n.     atom                  positions (alat units)
         1           Ba  tau(   1) = (   0.0000000   0.0000000   0.0000000  )
         2           Ti  tau(   2) = (   0.4900000   0.5000000   0.5000000  )
         3           O   tau(   3) = (   0.0000000   0.5000000   0.5000000  )
         4           O   tau(   4) = (   0.5000000   0.0000000   0.5000000  )
         5           O   tau(   5) = (   0.5000000   0.5000000   0.0000000  )

     number of k points=    18
                       cart. coord. in units 2pi/alat
        k(    1) = (   0.0833333   0.0833333   0.0833333), wk =   0.0740741
        k(    2) = (   0.0833333   0.0833333   0.2500000), wk =   0.1481481
        k(    3) = (   0.0833333   0.0833333   0.4166667), wk =   0.1481481
        k(    4) = (   0.0833333   0.2500000   0.2500000), wk =   0.0740741
        k(    5) = (   0.0833333   0.2500000   0.4166667), wk =   0.1481481
        k(    6) = (   0.0833333   0.4166667   0.4166667), wk =   0.0740741
        k(    7) = (   0.2500000   0.2500000   0.2500000), wk =   0.0740741
        k(    8) = (   0.2500000   0.2500000   0.4166667), wk =   0.1481481
        k(    9) = (   0.2500000   0.4166667   0.4166667), wk =   0.0740741
        k(   10) = (   0.4166667   0.4166667   0.4166667), wk =   0.0740741
        k(   11) = (   0.2500000  -0.0833333   0.0833333), wk =   0.0740741
        k(   12) = (   0.4166667  -0.0833333   0.0833333), wk =   0.0740741
        k(   13) = (   0.2500000  -0.2500000   0.0833333), wk =   0.1481481
        k(   14) = (   0.4166667  -0.2500000   0.0833333), wk =   0.1481481
        k(   15) = (   0.2500000   0.4166667   0.0833333), wk =   0.1481481
        k(   16) = (   0.4166667  -0.4166667   0.0833333), wk =   0.1481481
        k(   17) = (   0.4166667  -0.2500000   0.2500000), wk =   0.0740741
        k(   18) = (   0.4166667  -0.4166667   0.2500000), wk =   0.1481481

     Dense  grid:   155139 G-vectors     FFT dimensions: (  72,  72,  72)

     Smooth grid:    54795 G-vectors     FFT dimensions: (  48,  48,  48)

     Estimated max dynamical RAM per process >       6.38MB

     Estimated total allocated dynamical RAM >     178.54MB

     Initial potential from superposition of free atoms

     starting charge   28.99996, renormalised to   40.00000
     Starting wfc are   22 randomized atomic wfcs +    2 random wfc

     total cpu time spent up to now is        1.1 secs

     per-process dynamical memory:    58.6 Mb

     Self-consistent Calculation

     iteration #  1     ecut=   100.00 Ry     beta=0.60
     Davidson diagonalization with overlap
     ethr =  1.00E-02,  avg # of iterations = 12.0

     total cpu time spent up to now is        2.4 secs

     total energy              =      56.13519052 Ry
     Harris-Foulkes estimate   =    -388.55371478 Ry
     estimated scf accuracy    <     586.79087789 Ry

     iteration #  2     ecut=   100.00 Ry     beta=0.60
     Davidson diagonalization with overlap
     ethr =  1.00E-02,  avg # of iterations =  8.2

     total cpu time spent up to now is        3.4 secs

     total energy              =    -286.23183516 Ry
     Harris-Foulkes estimate   =    -456.82338383 Ry
     estimated scf accuracy    <     315.51649030 Ry

     iteration #  3     ecut=   100.00 Ry     beta=0.60
     Davidson diagonalization with overlap
     ethr =  1.00E-02,  avg # of iterations =  3.8

     total cpu time spent up to now is        4.0 secs

     total energy              =    -277.51993091 Ry
     Harris-Foulkes estimate   =    -302.77839148 Ry
     estimated scf accuracy    <      85.07543101 Ry

     iteration #  4     ecut=   100.00 Ry     beta=0.60
     Davidson diagonalization with overlap
     ethr =  1.00E-02,  avg # of iterations =  4.3

     total cpu time spent up to now is        4.5 secs

     total energy              =    -272.56282006 Ry
     Harris-Foulkes estimate   =    -279.28200714 Ry
     estimated scf accuracy    <      40.44648843 Ry

     iteration #  5     ecut=   100.00 Ry     beta=0.60
     Davidson diagonalization with overlap
     ethr =  1.00E-02,  avg # of iterations =  3.0

     total cpu time spent up to now is        4.9 secs

     total energy              =    -273.12755337 Ry
     Harris-Foulkes estimate   =    -273.03529817 Ry
     estimated scf accuracy    <      21.04885826 Ry

     iteration #  6     ecut=   100.00 Ry     beta=0.60
     Davidson diagonalization with overlap
     ethr =  1.00E-02,  avg # of iterations =  1.2

     total cpu time spent up to now is        5.2 secs

     total energy              =    -272.00405799 Ry
     Harris-Foulkes estimate   =    -273.15669250 Ry
     estimated scf accuracy    <      22.59389497 Ry

     iteration #  7     ecut=   100.00 Ry     beta=0.60
     Davidson diagonalization with overlap
     ethr =  1.00E-02,  avg # of iterations =  1.0

     total cpu time spent up to now is        5.5 secs

     total energy              =    -269.28440239 Ry
     Harris-Foulkes estimate   =    -272.02021641 Ry
     estimated scf accuracy    <      19.87748090 Ry

     iteration #  8     ecut=   100.00 Ry     beta=0.60
     Davidson diagonalization with overlap
     ethr =  1.00E-02,  avg # of iterations =  2.3

     total cpu time spent up to now is        5.8 secs

     total energy              =    -269.05889296 Ry
     Harris-Foulkes estimate   =    -269.48392512 Ry
     estimated scf accuracy    <      11.19432710 Ry

     iteration #  9     ecut=   100.00 Ry     beta=0.60
     Davidson diagonalization with overlap
     ethr =  1.00E-02,  avg # of iterations =  1.2

     total cpu time spent up to now is        6.2 secs

     total energy              =    -266.29717287 Ry
     Harris-Foulkes estimate   =    -269.12312561 Ry
     estimated scf accuracy    <       9.77461984 Ry

     iteration # 10     ecut=   100.00 Ry     beta=0.60
     Davidson diagonalization with overlap
     ethr =  1.00E-02,  avg # of iterations =  3.0

     negative rho (up, down):  2.088E-07 0.000E+00

     total cpu time spent up to now is        6.6 secs

          k = 0.0833 0.0833 0.0833     band energies (ev):

   -55.4377 -31.9059 -31.9053 -31.4897 -10.5566  -9.7720  -9.3515  -1.6347
     2.6903   2.8181   3.1292   3.5438   3.7388   3.9172   5.2383   5.3244
     5.9546   6.1182   6.3157   6.4465   6.7000   6.9939  12.0747  12.4838

          k = 0.0833 0.0833 0.2500     band energies (ev):

   -55.4366 -31.9180 -31.9053 -31.4897 -10.3469  -9.6626  -9.3389  -1.8336
     1.3200   2.6528   2.9571   3.2334   3.5327   3.9394   5.3511   5.6343
     6.1592   6.3604   6.5909   6.6457   6.9124   8.2021  11.2454  12.0769

          k = 0.0833 0.0833 0.4167     band energies (ev):

   -55.4362 -31.9300 -31.9040 -31.4886 -10.1632  -9.4764  -9.3480  -2.0003
     0.1877   2.4619   2.7350   3.1266   3.4990   3.9487   5.7148   5.8038
     6.1607   6.3766   6.8736   6.9423   7.1423   9.0541  10.5565  11.7305

          k = 0.0833 0.2500 0.2500     band energies (ev):

   -55.4374 -31.9177 -31.9168 -31.4892 -10.0982  -9.5841  -9.3284  -1.9802
     1.0451   1.7601   2.5809   2.9561   3.1423   3.9580   5.3583   6.0882
     6.4169   6.4229   6.7582   6.7821   7.6358   8.9351  10.9300  11.8696

          k = 0.0833 0.2500 0.4167     band energies (ev):

   -55.4369 -31.9293 -31.9164 -31.4884  -9.8727  -9.4350  -9.3341  -2.1164
     0.1433   1.5588   2.3072   2.7826   3.0447   3.9641   5.5846   5.9667
     6.3969   6.5803   7.0121   7.2244   7.6995   9.7828  10.9878  11.4679

          k = 0.0833 0.4167 0.4167     band energies (ev):

   -55.4369 -31.9282 -31.9281 -31.4879  -9.5590  -9.3749  -9.3278  -2.2341
    -0.1015   0.6493   2.2732   2.7217   2.7328   3.9733   5.3861   5.5511
     6.8340   7.0874   7.2000   7.2538   7.9110  10.6991  11.1102  11.6044

          k = 0.2500 0.2500 0.2500     band energies (ev):

   -55.4366 -31.9174 -31.9164 -31.5010  -9.9769  -9.5711  -9.1227  -2.0075
     1.0629   1.3839   2.3435   2.4559   2.5570   3.1058   5.8990   5.9076
     6.5729   6.6074   6.7531   7.0575   8.8852   9.2701  10.6748  12.0519

          k = 0.2500 0.2500 0.4167     band energies (ev):

   -55.4365 -31.9296 -31.9161 -31.5003  -9.7750  -9.4008  -9.1208  -2.0541
     0.1370   1.3401   1.9385   2.2832   2.5210   2.7946   6.0001   6.3167
     6.5130   6.7019   6.8851   7.1894   9.1045  10.0704  11.0877  11.7774

          k = 0.2500 0.4167 0.4167     band energies (ev):

   -55.4365 -31.9285 -31.9278 -31.5001  -9.4327  -9.3564  -9.1279  -2.0220
    -0.0964   0.5619   1.7863   2.0890   2.2085   2.3924   6.2717   6.3953
     6.7503   6.8548   7.0253   7.0516   9.7001  10.6872  11.5225  12.1165

          k = 0.4167 0.4167 0.4167     band energies (ev):

   -55.4357 -31.9282 -31.9279 -31.5115  -9.3857  -9.3378  -8.8120  -1.7718
    -0.0946   0.2589   1.3832   1.4127   1.6469   1.8211   6.4971   6.7465
     6.7492   6.8403   7.1983   7.2073  10.5915  10.9705  12.0697  12.3805

          k = 0.2500-0.0833 0.0833     band energies (ev):

   -55.4369 -31.9054 -31.9050 -31.5019 -10.4285  -9.7632  -9.1590  -1.8248
     1.7459   2.6863   2.9122   3.3235   3.3718   3.6915   5.2867   5.4321
     6.0033   6.0529   6.5130   6.9607   6.9880   8.4814  11.1073  12.1804

          k = 0.4167-0.0833 0.0833     band energies (ev):

   -55.4362 -31.9048 -31.9047 -31.5142 -10.3110  -9.7549  -8.9262  -1.9840
     0.6299   2.6582   2.8536   3.0488   3.2122   3.6621   5.5459   5.7132
     5.8953   6.0370   6.5528   7.3302   7.4507   9.3422  10.3730  11.8624

          k = 0.2500-0.2500 0.0833     band energies (ev):

   -55.4368 -31.9178 -31.9048 -31.5018 -10.2304  -9.6433  -9.1381  -1.9643
     1.2297   1.9463   2.6848   2.9145   3.0905   3.6168   5.1014   5.7578
     6.3266   6.5245   6.8696   7.1102   7.4266   9.2059  10.8642  11.9608

          k = 0.4167-0.2500 0.0833     band energies (ev):

   -55.4358 -31.9171 -31.9043 -31.5132 -10.1317  -9.6232  -8.8883  -2.0852
     0.5715   1.5101   2.5414   2.7763   2.9240   3.5323   5.1892   5.5671
     6.4126   6.5439   7.2954   7.4600   7.6005  10.1119  10.8005  11.5538

          k = 0.2500 0.4167 0.0833     band energies (ev):

   -55.4361 -31.9299 -31.9043 -31.5006 -10.0780  -9.4319  -9.1315  -2.0932
     0.1756   1.9125   2.3763   2.7234   3.0221   3.5994   5.2300   5.5489
     6.7433   6.8403   7.0109   7.3337   7.5639  10.0401  10.9480  11.5340

          k = 0.4167-0.4167 0.0833     band energies (ev):

   -55.4354 -31.9299 -31.9035 -31.5132 -10.0153  -9.3934  -8.8515  -2.1894
     0.1016   0.8403   2.4167   2.5896   2.8101   3.5069   4.9650   5.1693
     6.9889   7.0812   7.4424   7.6110   7.7048  10.9478  11.2100  11.4850

          k = 0.4167-0.2500 0.2500     band energies (ev):

   -55.4360 -31.9169 -31.9165 -31.5127  -9.8801  -9.5578  -8.8590  -2.0381
     0.5522   1.0917   2.0514   2.1357   2.4104   2.7937   5.9609   6.1380
     6.2748   6.4482   7.2121   7.5499   8.8437  10.3712  11.0565  11.6873

          k = 0.4167-0.4167 0.2500     band energies (ev):

   -55.4357 -31.9291 -31.9162 -31.5125  -9.7135  -9.3714  -8.8309  -1.9964
     0.0893   0.6604   1.7769   1.9588   2.0798   2.3653   5.8943   6.0848
     6.7982   6.9904   7.2338   7.3538   9.4097  10.9561  11.5373  11.9776

     highest occupied, lowest unoccupied level (ev):     7.6110    6.7000

!    total energy              =    -266.14144850 Ry
     Harris-Foulkes estimate   =    -269.77975643 Ry
     estimated scf accuracy    <      38.25271006 Ry

     The total energy is the sum of the following terms:

     one-electron contribution =    -111.80418353 Ry
     hartree contribution      =      51.84474181 Ry
     xc contribution           =     -42.59763028 Ry
     ewald contribution        =    -211.89562325 Ry
     scf correction            =      48.31124675 Ry

     iteration # 11     ecut=   100.00 Ry     beta=0.60
     Davidson diagonalization with overlap
     ethr =  1.00E-02,  avg # of iterations =  3.1

     negative rho (up, down):  1.771E-07 0.000E+00

     total cpu time spent up to now is        7.0 secs

     total energy              =    -267.63495643 Ry
     Harris-Foulkes estimate   =    -267.09519025 Ry
     estimated scf accuracy    <      26.24378521 Ry

     iteration # 12     ecut=   100.00 Ry     beta=0.60
     Davidson diagonalization with overlap
     ethr =  1.00E-02,  avg # of iterations =  1.0

     negative rho (up, down):  1.444E-07 0.000E+00

     total cpu time spent up to now is        7.3 secs

     total energy              =    -267.69015329 Ry
     Harris-Foulkes estimate   =    -267.69189675 Ry
     estimated scf accuracy    <      31.80285674 Ry

     iteration # 13     ecut=   100.00 Ry     beta=0.60
     Davidson diagonalization with overlap
     ethr =  1.00E-02,  avg # of iterations =  1.0

     negative rho (up, down):  1.203E-07 0.000E+00

     total cpu time spent up to now is        7.6 secs

     total energy              =    -267.19135803 Ry
     Harris-Foulkes estimate   =    -267.74976665 Ry
     estimated scf accuracy    <      32.29702121 Ry

     iteration # 14     ecut=   100.00 Ry     beta=0.60
     Davidson diagonalization with overlap
     ethr =  1.00E-02,  avg # of iterations =  1.0

     negative rho (up, down):  1.789E-07 0.000E+00

     total cpu time spent up to now is        7.9 secs

     total energy              =    -264.73787525 Ry
     Harris-Foulkes estimate   =    -267.22669693 Ry
     estimated scf accuracy    <      29.07469903 Ry

     iteration # 15     ecut=   100.00 Ry     beta=0.60
     Davidson diagonalization with overlap
     ethr =  1.00E-02,  avg # of iterations =  1.0

     negative rho (up, down):  7.736E-08 0.000E+00

     total cpu time spent up to now is        8.2 secs

     total energy              =    -265.51695290 Ry
     Harris-Foulkes estimate   =    -265.39387096 Ry
     estimated scf accuracy    <       5.48554542 Ry

     iteration # 16     ecut=   100.00 Ry     beta=0.60
     Davidson diagonalization with overlap
     ethr =  1.00E-02,  avg # of iterations =  1.0

     negative rho (up, down):  1.532E-07 0.000E+00

     total cpu time spent up to now is        8.5 secs

     total energy              =    -264.13553525 Ry
     Harris-Foulkes estimate   =    -265.54703085 Ry
     estimated scf accuracy    <       6.92329919 Ry

     iteration # 17     ecut=   100.00 Ry     beta=0.60
     Davidson diagonalization with overlap
     ethr =  1.00E-02,  avg # of iterations =  3.3

     total cpu time spent up to now is        8.9 secs

     total energy              =    -265.12089719 Ry
     Harris-Foulkes estimate   =    -265.15689849 Ry
     estimated scf accuracy    <       0.96085617 Ry

     iteration # 18     ecut=   100.00 Ry     beta=0.60
     Davidson diagonalization with overlap
     ethr =  2.40E-03,  avg # of iterations =  1.0

     total cpu time spent up to now is        9.2 secs

     total energy              =    -264.94761342 Ry
     Harris-Foulkes estimate   =    -265.13701519 Ry
     estimated scf accuracy    <       0.90259908 Ry

     iteration # 19     ecut=   100.00 Ry     beta=0.60
     Davidson diagonalization with overlap
     ethr =  2.26E-03,  avg # of iterations =  1.0

     total cpu time spent up to now is        9.5 secs

     total energy              =    -264.87255561 Ry
     Harris-Foulkes estimate   =    -264.97812163 Ry
     estimated scf accuracy    <       0.42412445 Ry

     iteration # 20     ecut=   100.00 Ry     beta=0.60
     Davidson diagonalization with overlap
     ethr =  1.06E-03,  avg # of iterations =  2.8

     total cpu time spent up to now is        9.9 secs

          k = 0.0833 0.0833 0.0833     band energies (ev):

   -46.0212 -22.7390 -22.7390 -22.5385 -11.6696  -6.3652  -6.0162  -4.9593
     2.7452   2.8166   2.9793   7.8960   7.9531   8.4570   8.5313   8.9633
     9.3171  10.0214  10.4327  10.5472  11.8581  12.0711  12.1009  14.4054

          k = 0.0833 0.0833 0.2500     band energies (ev):

   -46.0205 -22.7689 -22.7378 -22.5375 -11.5596  -6.4050  -5.8592  -5.0338
     2.8241   2.8957   3.2521   6.8271   7.7864   7.9573   8.2041   8.4959
     9.1164   9.5913  10.0818  10.2988  12.1116  12.6942  12.7989  14.6058

          k = 0.0833 0.0833 0.4167     band energies (ev):

   -46.0199 -22.7984 -22.7365 -22.5360 -11.4425  -6.5613  -5.5841  -5.0864
     2.9225   3.1216   3.3708   5.8751   7.5648   7.6234   7.7306   8.2998
     8.8785   9.5146   9.7818   9.9158  12.1453  13.4202  13.4891  14.6051

          k = 0.0833 0.2500 0.2500     band energies (ev):

   -46.0198 -22.7678 -22.7669 -22.5362 -11.4685  -6.2005  -5.9177  -5.0539
     2.7607   2.8456   3.4365   6.5819   6.8585   7.3502   7.8205   8.1762
     9.2951   9.5272   9.8029  10.5561  12.7904  12.8930  13.0863  15.2590

          k = 0.0833 0.2500 0.4167     band energies (ev):

   -46.0192 -22.7968 -22.7660 -22.5349 -11.3726  -6.2447  -5.7049  -5.0787
     2.7418   2.9657   3.3854   5.7816   6.6653   6.8154   7.4956   7.9206
     9.3249   9.5881   9.8986  10.3590  12.8799  13.5170  13.6123  15.3514

          k = 0.0833 0.4167 0.4167     band energies (ev):

   -46.0185 -22.7950 -22.7948 -22.5337 -11.2996  -5.8842  -5.8119  -5.1134
     2.6957   2.7437   3.3703   5.6387   5.8899   6.3069   7.3362   7.4357
     9.1477  10.0086  10.3881  10.6443  13.5333  13.5578  13.9376  15.5812

          k = 0.2500 0.2500 0.2500     band energies (ev):

   -46.0192 -22.7662 -22.7658 -22.5617 -11.3887  -6.2534  -5.8789  -4.8304
     2.4483   2.5329   3.5691   6.4274   6.7645   7.1642   7.9556   8.0309
     8.3392   9.5525   9.9001  10.2670  13.1812  13.3987  13.4407  16.2844

          k = 0.2500 0.2500 0.4167     band energies (ev):

   -46.0186 -22.7950 -22.7647 -22.5605 -11.3097  -6.1541  -5.7261  -4.8544
     2.2443   2.5129   3.1773   5.7553   6.6932   6.9502   7.5852   8.2545
     8.4195   9.6689   9.8111  10.3503  13.5145  13.7079  13.8524  16.4977

          k = 0.2500 0.4167 0.4167     band energies (ev):

   -46.0180 -22.7934 -22.7933 -22.5593 -11.2462  -5.8196  -5.7519  -4.8396
     2.0909   2.1844   2.6053   5.6582   5.8853   7.2275   7.7151   7.9802
     8.2274  10.0412  10.3445  10.5410  13.9640  13.9789  14.0512  17.0705

          k = 0.4167 0.4167 0.4167     band energies (ev):

   -46.0173 -22.7920 -22.7919 -22.5843 -11.1913  -5.7641  -5.6892  -4.5300
     1.6780   1.7575   1.9505   5.6540   5.8887   6.6487   8.1347   8.4742
     8.4826  10.0167  10.4773  10.6039  14.1742  14.4180  14.4224  17.9170

          k = 0.2500-0.0833 0.0833     band energies (ev):

   -46.0206 -22.7379 -22.7378 -22.5652 -11.5534  -6.5903  -5.9971  -4.7025
     2.8533   2.9136   3.2559   7.3840   7.6382   7.7901   8.3392   8.6570
     8.9706   9.1659   9.9728   9.9896  11.8951  13.0417  13.0555  14.4038

          k = 0.4167-0.0833 0.0833     band energies (ev):

   -46.0200 -22.7369 -22.7366 -22.5910 -11.4280  -6.8299  -5.9779  -4.4086
     3.0162   3.1455   3.3634   6.6405   7.3354   7.3435   7.8885   8.1755
     9.0165   9.1550   9.4632   9.5159  11.9319  13.8289  13.8393  14.3976

          k = 0.2500-0.2500 0.0833     band energies (ev):

   -46.0199 -22.7673 -22.7370 -22.5634 -11.4644  -6.4763  -5.8954  -4.8028
     2.6926   2.9066   3.4525   6.6248   7.2499   7.6384   7.9727   8.2790
     8.5921   9.3242   9.6106  10.2652  12.7072  13.0833  13.3004  15.0284

          k = 0.4167-0.2500 0.0833     band energies (ev):

   -46.0193 -22.7661 -22.7356 -22.5892 -11.3634  -6.5979  -5.9025  -4.5321
     2.7561   2.9138   3.4198   6.4564   6.7587   7.0467   7.4377   8.3513
     8.5884   9.1334   9.3038  10.1886  12.7524  13.8473  13.9179  15.0928

          k = 0.2500 0.4167 0.0833     band energies (ev):

   -46.0192 -22.7967 -22.7356 -22.5620 -11.3711  -6.4608  -5.6930  -4.8867
     2.6827   2.9676   3.3922   5.7759   6.8932   7.4698   7.7368   8.0269
     8.8050   9.1806   9.3611  10.2672  13.0827  13.4447  13.7417  15.1887

          k = 0.4167-0.4167 0.0833     band energies (ev):

   -46.0186 -22.7950 -22.7343 -22.5876 -11.2963  -6.3782  -5.7980  -4.6574
     2.6055   2.7167   3.4063   5.7374   6.5148   6.6358   7.4714   7.9709
     8.4019   9.3800   9.6176  10.5377  13.4633  13.8576  14.1440  15.3482

          k = 0.4167-0.2500 0.2500     band energies (ev):

   -46.0187 -22.7649 -22.7645 -22.5876 -11.3048  -6.3362  -5.8389  -4.5605
     2.3129   2.4243   3.1820   6.4633   6.7207   6.7956   7.3529   8.2266
     8.3162   9.3141   9.9491  10.1130  13.2758  14.0155  14.0365  16.2550

          k = 0.4167-0.4167 0.2500     band energies (ev):

   -46.0180 -22.7935 -22.7632 -22.5861 -11.2446  -6.0823  -5.7465  -4.5940
     2.0656   2.1609   2.6353   5.7515   6.6077   6.8122   7.4576   8.1649
     8.4705   9.6685   9.8863  10.5477  13.8042  14.1264  14.2771  16.7581

     highest occupied, lowest unoccupied level (ev):    10.6443   11.8581

!    total energy              =    -264.90021886 Ry
     Harris-Foulkes estimate   =    -264.91163046 Ry
     estimated scf accuracy    <       0.33007725 Ry

     The total energy is the sum of the following terms:

     one-electron contribution =     -70.54852643 Ry
     hartree contribution      =      57.84730216 Ry
     xc contribution           =     -43.04568147 Ry
     ewald contribution        =    -211.89562325 Ry
     scf correction            =       2.74231013 Ry

     iteration # 21     ecut=   100.00 Ry     beta=0.60
     Davidson diagonalization with overlap
     ethr =  8.25E-04,  avg # of iterations =  1.0

     total cpu time spent up to now is       10.2 secs

     total energy              =    -264.81238097 Ry
     Harris-Foulkes estimate   =    -264.90412666 Ry
     estimated scf accuracy    <       0.27554466 Ry

     iteration # 22     ecut=   100.00 Ry     beta=0.60
     Davidson diagonalization with overlap
     ethr =  6.89E-04,  avg # of iterations =  2.1

     total cpu time spent up to now is       10.5 secs

     total energy              =    -264.77849924 Ry
     Harris-Foulkes estimate   =    -264.86596486 Ry
     estimated scf accuracy    <       0.38910750 Ry

     iteration # 23     ecut=   100.00 Ry     beta=0.60
     Davidson diagonalization with overlap
     ethr =  6.89E-04,  avg # of iterations =  1.9

     total cpu time spent up to now is       10.9 secs

     total energy              =    -264.80051191 Ry
     Harris-Foulkes estimate   =    -264.80906413 Ry
     estimated scf accuracy    <       0.03359960 Ry

     iteration # 24     ecut=   100.00 Ry     beta=0.60
     Davidson diagonalization with overlap
     ethr =  8.40E-05,  avg # of iterations =  3.9

     total cpu time spent up to now is       11.3 secs

     total energy              =    -264.80444463 Ry
     Harris-Foulkes estimate   =    -264.80621404 Ry
     estimated scf accuracy    <       0.00578817 Ry

     iteration # 25     ecut=   100.00 Ry     beta=0.60
     Davidson diagonalization with overlap
     ethr =  1.45E-05,  avg # of iterations =  4.8

     total cpu time spent up to now is       11.8 secs

     total energy              =    -264.80593415 Ry
     Harris-Foulkes estimate   =    -264.80601396 Ry
     estimated scf accuracy    <       0.00021579 Ry

     iteration # 26     ecut=   100.00 Ry     beta=0.60
     Davidson diagonalization with overlap
     ethr =  5.39E-07,  avg # of iterations =  5.0

     total cpu time spent up to now is       12.4 secs

     total energy              =    -264.80607785 Ry
     Harris-Foulkes estimate   =    -264.80608057 Ry
     estimated scf accuracy    <       0.00001270 Ry

     iteration # 27     ecut=   100.00 Ry     beta=0.60
     Davidson diagonalization with overlap
     ethr =  3.17E-08,  avg # of iterations =  3.9

     total cpu time spent up to now is       12.8 secs

     total energy              =    -264.80607927 Ry
     Harris-Foulkes estimate   =    -264.80608081 Ry
     estimated scf accuracy    <       0.00000449 Ry

     iteration # 28     ecut=   100.00 Ry     beta=0.60
     Davidson diagonalization with overlap
     ethr =  1.12E-08,  avg # of iterations =  3.1

     total cpu time spent up to now is       13.2 secs

     total energy              =    -264.80607988 Ry
     Harris-Foulkes estimate   =    -264.80607994 Ry
     estimated scf accuracy    <       0.00000016 Ry

     iteration # 29     ecut=   100.00 Ry     beta=0.60
     Davidson diagonalization with overlap
     ethr =  3.93E-10,  avg # of iterations =  4.9

     total cpu time spent up to now is       13.9 secs

     total energy              =    -264.80608006 Ry
     Harris-Foulkes estimate   =    -264.80608007 Ry
     estimated scf accuracy    <       0.00000003 Ry

     iteration # 30     ecut=   100.00 Ry     beta=0.60
     Davidson diagonalization with overlap
     ethr =  8.73E-11,  avg # of iterations =  2.9

     total cpu time spent up to now is       14.2 secs

          k = 0.0833 0.0833 0.0833     band energies (ev):

   -44.6839 -21.2893 -21.2843 -21.2839 -13.7027  -5.7512  -5.0513  -5.0415
     1.2470   1.2483   1.4052   8.3813   8.6022   8.6037   9.3240   9.3301
     9.7668  10.3650  10.7035  10.7099  13.0846  13.1407  13.1523  15.7612

          k = 0.0833 0.0833 0.2500     band energies (ev):

   -44.6833 -21.3167 -21.2878 -21.2827 -13.6340  -5.8428  -5.0244  -4.9281
     1.3027   1.3223   1.6341   7.6285   8.2984   8.3832   8.8649   8.8871
     9.6383   9.6868  10.3666  10.4246  13.1907  13.9230  13.9371  15.7797

          k = 0.0833 0.0833 0.4167     band energies (ev):

   -44.6826 -21.3488 -21.2864 -21.2812 -13.5630  -6.0219  -4.9995  -4.6943
     1.3584   1.4995   1.7514   6.8633   8.0310   8.1060   8.3065   8.6485
     9.4222   9.5889  10.0014  10.1511  13.2552  14.6797  14.6912  15.7769

          k = 0.0833 0.2500 0.2500     band energies (ev):

   -44.6826 -21.3155 -21.3139 -21.2865 -13.5768  -5.7454  -4.9942  -4.9309
     1.2198   1.3239   1.7523   7.2799   7.8445   8.0256   8.4445   8.6353
     9.2199   9.9283  10.0220  10.4905  13.9095  14.0539  14.2826  16.3003

          k = 0.0833 0.2500 0.4167     band energies (ev):

   -44.6819 -21.3464 -21.3128 -21.2851 -13.5181  -5.7649  -4.9505  -4.8089
     1.2206   1.4191   1.6770   6.7729   7.3786   7.6788   8.1229   8.4913
     9.3429   9.7029   9.8970  10.4622  14.0280  14.7193  14.8335  16.3960

          k = 0.0833 0.4167 0.4167     band energies (ev):

   -44.6812 -21.3442 -21.3438 -21.2838 -13.4721  -5.4906  -4.9421  -4.8878
     1.1895   1.2390   1.6409   6.6017   6.8935   7.0165   8.1285   8.1466
     9.1410   9.9534  10.1239  10.8166  14.7309  14.7678  15.1508  16.5831

          k = 0.2500 0.2500 0.2500     band energies (ev):

   -44.6819 -21.3184 -21.3134 -21.3124 -13.5269  -5.5650  -4.9436  -4.9345
     1.0396   1.0412   1.8242   7.0392   7.7775   7.7864   8.3361   8.4958
     8.5033  10.2316  10.2412  10.2873  14.3970  14.4108  14.4238  17.5554

          k = 0.2500 0.2500 0.4167     band energies (ev):

   -44.6812 -21.3443 -21.3165 -21.3112 -13.4757  -5.4924  -4.8792  -4.8290
     0.8601   1.0698   1.5511   6.7486   7.3921   7.7470   7.8216   8.4943
     8.6745  10.0049  10.3518  10.3887  14.5258  14.9200  14.9680  17.5236

          k = 0.2500 0.4167 0.4167     band energies (ev):

   -44.6806 -21.3424 -21.3421 -21.3149 -13.4324  -5.2024  -4.8467  -4.8156
     0.7421   0.7970   1.1563   6.6178   7.0188   7.6071   7.8623   8.4324
     8.5331  10.2691  10.3890  10.8089  15.0498  15.0631  15.2790  17.8492

          k = 0.4167 0.4167 0.4167     band energies (ev):

   -44.6799 -21.3458 -21.3406 -21.3404 -13.3919  -4.8816  -4.7519  -4.7435
     0.4300   0.4319   0.6245   6.4902   7.0175   7.0247   8.3107   8.5932
     8.5969  10.7378  10.7431  10.8470  15.4132  15.4155  15.4211  18.3807

          k = 0.2500-0.0833 0.0833     band energies (ev):

   -44.6833 -21.3219 -21.2828 -21.2825 -13.6340  -5.8377  -5.0169  -4.9402
     1.3014   1.3223   1.6352   7.6238   8.2950   8.3779   8.8713   8.8775
     9.6350   9.7002  10.3991  10.3993  13.1696  13.9362  13.9484  15.7701

          k = 0.4167-0.0833 0.0833     band energies (ev):

   -44.6826 -21.3541 -21.2813 -21.2811 -13.5631  -6.0155  -4.9920  -4.7071
     1.3568   1.4983   1.7541   6.8499   8.0196   8.1013   8.3150   8.6528
     9.4103   9.5912  10.0364  10.1464  13.2341  14.6886  14.7000  15.7686

          k = 0.2500-0.2500 0.0833     band energies (ev):

   -44.6826 -21.3201 -21.3146 -21.2813 -13.5769  -5.7398  -5.0013  -4.9288
     1.2208   1.3227   1.7526   7.2784   7.8273   8.0334   8.4381   8.6265
     9.2464   9.9325  10.0137  10.4869  13.9150  14.0555  14.2876  16.2955

          k = 0.4167-0.2500 0.0833     band energies (ev):

   -44.6819 -21.3517 -21.3128 -21.2799 -13.5182  -5.7567  -4.9461  -4.8200
     1.2198   1.4208   1.6765   6.7629   7.3554   7.6955   8.1151   8.4834
     9.3656   9.7033   9.9079  10.4534  14.0248  14.7260  14.8388  16.3943

          k = 0.2500 0.4167 0.0833     band energies (ev):

   -44.6819 -21.3464 -21.3180 -21.2799 -13.5181  -5.7610  -4.9541  -4.8083
     1.2222   1.4184   1.6766   6.7732   7.3702   7.6780   8.1090   8.4920
     9.3571   9.7026   9.9044  10.4554  14.0388  14.7157  14.8374  16.3981

          k = 0.4167-0.4167 0.0833     band energies (ev):

   -44.6812 -21.3493 -21.3440 -21.2786 -13.4721  -5.4795  -4.9488  -4.8903
     1.1905   1.2402   1.6393   6.5989   6.8783   7.0186   8.1037   8.1498
     9.1457   9.9704  10.1424  10.8067  14.7328  14.7693  15.1548  16.5917

          k = 0.4167-0.2500 0.2500     band energies (ev):

   -44.6812 -21.3496 -21.3116 -21.3108 -13.4757  -5.4865  -4.8722  -4.8411
     0.8586   1.0722   1.5503   6.7404   7.3770   7.7528   7.8247   8.4978
     8.6804  10.0140  10.3535  10.3807  14.5209  14.9226  14.9715  17.5202

          k = 0.4167-0.4167 0.2500     band energies (ev):

   -44.6806 -21.3475 -21.3422 -21.3097 -13.4324  -5.1936  -4.8538  -4.8163
     0.7419   0.7982   1.1553   6.6150   7.0129   7.6013   7.8623   8.4306
     8.5343  10.2797  10.4028  10.7980  15.0477  15.0622  15.2826  17.8605

     highest occupied, lowest unoccupied level (ev):    10.8470   13.0846

!    total energy              =    -264.80608007 Ry
     Harris-Foulkes estimate   =    -264.80608007 Ry
     estimated scf accuracy    <          6.7E-10 Ry

     The total energy is the sum of the following terms:

     one-electron contribution =     -68.24391057 Ry
     hartree contribution      =      58.13942805 Ry
     xc contribution           =     -42.80599700 Ry
     ewald contribution        =    -211.89562325 Ry
     scf correction            =       0.00002270 Ry

     iteration # 31     ecut=   100.00 Ry     beta=0.60
     Davidson diagonalization with overlap
     ethr =  1.68E-12,  avg # of iterations =  5.3

     total cpu time spent up to now is       14.9 secs

     total energy              =    -264.80608007 Ry
     Harris-Foulkes estimate   =    -264.80608007 Ry
     estimated scf accuracy    <          7.2E-11 Ry

     iteration # 32     ecut=   100.00 Ry     beta=0.60
     Davidson diagonalization with overlap
     ethr =  1.79E-13,  avg # of iterations =  3.6

     total cpu time spent up to now is       15.3 secs

     total energy              =    -264.80608007 Ry
     Harris-Foulkes estimate   =    -264.80608007 Ry
     estimated scf accuracy    <          1.1E-11 Ry

     iteration # 33     ecut=   100.00 Ry     beta=0.60
     Davidson diagonalization with overlap
     ethr =  1.00E-13,  avg # of iterations =  1.1

     total cpu time spent up to now is       15.6 secs

     End of self-consistent calculation

          k = 0.0833 0.0833 0.0833 (  6850 PWs)   bands (ev):

   -44.6839 -21.2893 -21.2843 -21.2839 -13.7027  -5.7512  -5.0513  -5.0415
     1.2470   1.2483   1.4052   8.3813   8.6022   8.6037   9.3241   9.3301
     9.7668  10.3650  10.7035  10.7099  13.0846  13.1407  13.1523  15.7612

          k = 0.0833 0.0833 0.2500 (  6839 PWs)   bands (ev):

   -44.6833 -21.3167 -21.2878 -21.2827 -13.6340  -5.8427  -5.0244  -4.9281
     1.3027   1.3223   1.6341   7.6285   8.2984   8.3832   8.8650   8.8871
     9.6383   9.6868  10.3666  10.4246  13.1907  13.9230  13.9371  15.7797

          k = 0.0833 0.0833 0.4167 (  6839 PWs)   bands (ev):

   -44.6826 -21.3488 -21.2864 -21.2812 -13.5630  -6.0218  -4.9995  -4.6943
     1.3584   1.4995   1.7514   6.8633   8.0310   8.1060   8.3065   8.6485
     9.4222   9.5889  10.0014  10.1511  13.2552  14.6797  14.6912  15.7769

          k = 0.0833 0.2500 0.2500 (  6847 PWs)   bands (ev):

   -44.6826 -21.3155 -21.3140 -21.2864 -13.5768  -5.7454  -4.9942  -4.9309
     1.2198   1.3239   1.7523   7.2799   7.8445   8.0256   8.4445   8.6353
     9.2199   9.9284  10.0220  10.4905  13.9095  14.0539  14.2826  16.3003

          k = 0.0833 0.2500 0.4167 (  6833 PWs)   bands (ev):

   -44.6819 -21.3464 -21.3128 -21.2851 -13.5181  -5.7648  -4.9504  -4.8089
     1.2206   1.4191   1.6770   6.7729   7.3786   7.6788   8.1229   8.4913
     9.3429   9.7029   9.8970  10.4621  14.0280  14.7193  14.8335  16.3960

          k = 0.0833 0.4167 0.4167 (  6854 PWs)   bands (ev):

   -44.6812 -21.3442 -21.3438 -21.2837 -13.4721  -5.4905  -4.9421  -4.8878
     1.1895   1.2390   1.6409   6.6017   6.8935   7.0165   8.1285   8.1466
     9.1410   9.9535  10.1239  10.8166  14.7309  14.7678  15.1508  16.5831

          k = 0.2500 0.2500 0.2500 (  6881 PWs)   bands (ev):

   -44.6819 -21.3184 -21.3134 -21.3124 -13.5269  -5.5650  -4.9436  -4.9345
     1.0396   1.0412   1.8242   7.0392   7.7775   7.7864   8.3361   8.4958
     8.5033  10.2316  10.2412  10.2873  14.3970  14.4108  14.4238  17.5554

          k = 0.2500 0.2500 0.4167 (  6839 PWs)   bands (ev):

   -44.6812 -21.3443 -21.3165 -21.3112 -13.4757  -5.4924  -4.8792  -4.8290
     0.8601   1.0698   1.5511   6.7486   7.3921   7.7470   7.8217   8.4943
     8.6746  10.0049  10.3518  10.3887  14.5258  14.9200  14.9680  17.5236

          k = 0.2500 0.4167 0.4167 (  6851 PWs)   bands (ev):

   -44.6806 -21.3424 -21.3421 -21.3149 -13.4324  -5.2024  -4.8467  -4.8156
     0.7421   0.7969   1.1563   6.6178   7.0188   7.6071   7.8623   8.4324
     8.5331  10.2691  10.3890  10.8088  15.0498  15.0631  15.2790  17.8492

          k = 0.4167 0.4167 0.4167 (  6854 PWs)   bands (ev):

   -44.6799 -21.3457 -21.3406 -21.3404 -13.3919  -4.8816  -4.7518  -4.7435
     0.4300   0.4319   0.6245   6.4902   7.0175   7.0247   8.3107   8.5932
     8.5969  10.7378  10.7431  10.8470  15.4132  15.4155  15.4211  18.3807

          k = 0.2500-0.0833 0.0833 (  6839 PWs)   bands (ev):

   -44.6833 -21.3219 -21.2828 -21.2825 -13.6340  -5.8377  -5.0169  -4.9401
     1.3014   1.3223   1.6352   7.6238   8.2951   8.3779   8.8714   8.8775
     9.6351   9.7002  10.3991  10.3993  13.1696  13.9362  13.9484  15.7701

          k = 0.4167-0.0833 0.0833 (  6839 PWs)   bands (ev):

   -44.6826 -21.3541 -21.2813 -21.2811 -13.5631  -6.0155  -4.9920  -4.7071
     1.3568   1.4983   1.7541   6.8499   8.0196   8.1013   8.3150   8.6528
     9.4103   9.5912  10.0364  10.1463  13.2341  14.6886  14.7000  15.7686

          k = 0.2500-0.2500 0.0833 (  6847 PWs)   bands (ev):

   -44.6826 -21.3200 -21.3146 -21.2813 -13.5769  -5.7398  -5.0013  -4.9288
     1.2208   1.3227   1.7526   7.2784   7.8273   8.0334   8.4381   8.6266
     9.2464   9.9325  10.0137  10.4870  13.9150  14.0555  14.2876  16.2955

          k = 0.4167-0.2500 0.0833 (  6833 PWs)   bands (ev):

   -44.6819 -21.3517 -21.3128 -21.2799 -13.5182  -5.7567  -4.9461  -4.8200
     1.2198   1.4208   1.6765   6.7629   7.3554   7.6954   8.1151   8.4834
     9.3656   9.7033   9.9079  10.4534  14.0248  14.7260  14.8388  16.3943

          k = 0.2500 0.4167 0.0833 (  6833 PWs)   bands (ev):

   -44.6819 -21.3464 -21.3180 -21.2799 -13.5181  -5.7609  -4.9541  -4.8083
     1.2222   1.4184   1.6766   6.7732   7.3703   7.6780   8.1091   8.4920
     9.3571   9.7026   9.9044  10.4554  14.0388  14.7157  14.8374  16.3981

          k = 0.4167-0.4167 0.0833 (  6854 PWs)   bands (ev):

   -44.6812 -21.3493 -21.3440 -21.2786 -13.4721  -5.4795  -4.9488  -4.8902
     1.1905   1.2402   1.6393   6.5990   6.8783   7.0186   8.1037   8.1498
     9.1457   9.9703  10.1424  10.8067  14.7328  14.7694  15.1548  16.5917

          k = 0.4167-0.2500 0.2500 (  6839 PWs)   bands (ev):

   -44.6812 -21.3496 -21.3116 -21.3108 -13.4757  -5.4865  -4.8722  -4.8411
     0.8586   1.0722   1.5503   6.7404   7.3770   7.7528   7.8247   8.4978
     8.6804  10.0140  10.3535  10.3807  14.5209  14.9227  14.9715  17.5202

          k = 0.4167-0.4167 0.2500 (  6851 PWs)   bands (ev):

   -44.6806 -21.3475 -21.3423 -21.3097 -13.4324  -5.1936  -4.8538  -4.8163
     0.7419   0.7982   1.1553   6.6150   7.0129   7.6013   7.8623   8.4306
     8.5343  10.2797  10.4028  10.7980  15.0477  15.0622  15.2827  17.8605

     highest occupied, lowest unoccupied level (ev):    10.8470   13.0846

!    total energy              =    -264.80608007 Ry
     Harris-Foulkes estimate   =    -264.80608007 Ry
     estimated scf accuracy    <          4.3E-13 Ry

     The total energy is the sum of the following terms:

     one-electron contribution =     -68.24388296 Ry
     hartree contribution      =      58.13942211 Ry
     xc contribution           =     -42.80599598 Ry
     ewald contribution        =    -211.89562325 Ry

     convergence has been achieved in  33 iterations

     Forces acting on atoms (cartesian axes, Ry/au):

     atom    1 type  3   force =    -0.00599330    0.00000000    0.00000000
     atom    2 type  2   force =     0.00319677    0.00000000    0.00000000
     atom    3 type  1   force =     0.00386992    0.00000000    0.00000000
     atom    4 type  1   force =    -0.00053670    0.00000000    0.00000000
     atom    5 type  1   force =    -0.00053670    0.00000000    0.00000000

     Total force =     0.007854     Total SCF correction =     0.000001


     Computing stress (Cartesian axis) and pressure

          total   stress  (Ry/bohr**3)                   (kbar)     P=   29.73
   0.00021272   0.00000000   0.00000000         31.29      0.00      0.00
   0.00000000   0.00019680   0.00000000          0.00     28.95      0.00
   0.00000000   0.00000000   0.00019680          0.00      0.00     28.95


     BFGS Geometry Optimization

     number of scf cycles    =   1
     number of bfgs steps    =   0

     enthalpy new            =    -264.8060800668 Ry

     new trust radius        =       0.0214108138 bohr
     new conv_thr            =            1.0E-12 Ry

     new unit-cell volume =    411.39742 a.u.^3 (    60.96281 Ang^3 )
     density =      6.35149 g/cm^3

CELL_PARAMETERS (alat=  7.40000000)
   1.005318089   0.000000000   0.000000000
   0.000000000   1.004919922   0.000000000
   0.000000000   0.000000000   1.004919922

ATOMIC_POSITIONS (crystal)
Ba      -0.000809906   0.000000000   0.000000000
Ti       0.490431997   0.500000000   0.500000000
O        0.000522962   0.500000000   0.500000000
O        0.499927474   0.000000000   0.500000000
O        0.499927474   0.500000000   0.000000000



     Writing output data file bto.save
     NEW-OLD atomic charge density approx. for the potential

     negative rho (up, down):  1.478E-08 0.000E+00
     extrapolated charge   40.43517, renormalised to   40.00000

     total cpu time spent up to now is       17.0 secs

     per-process dynamical memory:    78.0 Mb

     Self-consistent Calculation

     iteration #  1     ecut=   100.00 Ry     beta=0.60
     Davidson diagonalization with overlap
     c_bands:  1 eigenvalues not converged
     ethr =  1.00E-06,  avg # of iterations = 11.4

     total cpu time spent up to now is       18.1 secs

     total energy              =    -264.74451672 Ry
     Harris-Foulkes estimate   =    -264.16544468 Ry
     estimated scf accuracy    <       0.08294878 Ry

     iteration #  2     ecut=   100.00 Ry     beta=0.60
     Davidson diagonalization with overlap
     ethr =  2.07E-04,  avg # of iterations =  4.5

     total cpu time spent up to now is       18.7 secs

     total energy              =    -264.78433108 Ry
     Harris-Foulkes estimate   =    -264.83929352 Ry
     estimated scf accuracy    <       0.13041644 Ry

     iteration #  3     ecut=   100.00 Ry     beta=0.60
     Davidson diagonalization with overlap
     ethr =  2.07E-04,  avg # of iterations =  3.1

     total cpu time spent up to now is       19.0 secs

     total energy              =    -264.80375007 Ry
     Harris-Foulkes estimate   =    -264.81170667 Ry
     estimated scf accuracy    <       0.02533692 Ry

     iteration #  4     ecut=   100.00 Ry     beta=0.60
     Davidson diagonalization with overlap
     ethr =  6.33E-05,  avg # of iterations =  2.6

     total cpu time spent up to now is       19.4 secs

     total energy              =    -264.80603024 Ry
     Harris-Foulkes estimate   =    -264.80718199 Ry
     estimated scf accuracy    <       0.00199390 Ry

     iteration #  5     ecut=   100.00 Ry     beta=0.60
     Davidson diagonalization with overlap
     ethr =  4.98E-06,  avg # of iterations =  5.0

     total cpu time spent up to now is       20.0 secs

     total energy              =    -264.80670758 Ry
     Harris-Foulkes estimate   =    -264.80675058 Ry
     estimated scf accuracy    <       0.00019055 Ry

     iteration #  6     ecut=   100.00 Ry     beta=0.60
     Davidson diagonalization with overlap
     ethr =  4.76E-07,  avg # of iterations =  4.7

     total cpu time spent up to now is       20.5 secs

     total energy              =    -264.80673325 Ry
     Harris-Foulkes estimate   =    -264.80673989 Ry
     estimated scf accuracy    <       0.00002984 Ry

     iteration #  7     ecut=   100.00 Ry     beta=0.60
     Davidson diagonalization with overlap
     ethr =  7.46E-08,  avg # of iterations =  4.7

     total cpu time spent up to now is       20.9 secs

     total energy              =    -264.80673965 Ry
     Harris-Foulkes estimate   =    -264.80674087 Ry
     estimated scf accuracy    <       0.00000394 Ry

     iteration #  8     ecut=   100.00 Ry     beta=0.60
     Davidson diagonalization with overlap
     ethr =  9.85E-09,  avg # of iterations =  4.4

     total cpu time spent up to now is       21.4 secs

     total energy              =    -264.80674064 Ry
     Harris-Foulkes estimate   =    -264.80674067 Ry
     estimated scf accuracy    <       0.00000005 Ry

     iteration #  9     ecut=   100.00 Ry     beta=0.60
     Davidson diagonalization with overlap
     ethr =  1.27E-10,  avg # of iterations =  5.6

     total cpu time spent up to now is       22.0 secs

     total energy              =    -264.80674075 Ry
     Harris-Foulkes estimate   =    -264.80674076 Ry
     estimated scf accuracy    <       0.00000002 Ry

     iteration # 10     ecut=   100.00 Ry     beta=0.60
     Davidson diagonalization with overlap
     ethr =  4.61E-11,  avg # of iterations =  3.5

     total cpu time spent up to now is       22.5 secs

          k = 0.0829 0.0829 0.0829     band energies (ev):

   -44.9787 -21.5713 -21.5669 -21.5666 -13.9634  -5.9463  -5.2389  -5.2307
     0.9933   0.9937   1.1431   8.1472   8.3639   8.3642   9.1306   9.1353
     9.5658  10.1264  10.4614  10.4668  12.8211  12.8765  12.8870  15.4210

          k = 0.0829 0.0829 0.2488     band energies (ev):

   -44.9781 -21.5969 -21.5700 -21.5654 -13.8999  -6.0244  -5.2134  -5.1284
     1.0462   1.0633   1.3584   7.4170   8.0769   8.1652   8.6648   8.6899
     9.4377   9.4630  10.1316  10.1869  12.9233  13.6411  13.6540  15.4332

          k = 0.0829 0.0829 0.4146     band energies (ev):

   -44.9775 -21.6268 -21.5687 -21.5641 -13.8345  -6.1874  -5.1896  -4.9110
     1.0998   1.2315   1.4667   6.6729   7.8281   7.9045   8.1102   8.4465
     9.2218   9.3663   9.7727   9.9225  12.9855  14.3781  14.3881  15.4293

          k = 0.0829 0.2488 0.2488     band energies (ev):

   -44.9775 -21.5959 -21.5945 -21.5687 -13.8468  -5.9268  -5.1892  -5.1279
     0.9641   1.0660   1.4692   7.0804   7.6358   7.8308   8.2224   8.4459
     9.0066   9.7199   9.7941  10.2538  13.6261  13.7669  13.9941  15.9411

          k = 0.0829 0.2488 0.4146     band energies (ev):

   -44.9769 -21.6246 -21.5934 -21.5674 -13.7924  -5.9381  -5.1457  -5.0179
     0.9665   1.1528   1.3969   6.5836   7.1965   7.4755   7.9242   8.2897
     9.1213   9.4860   9.6799  10.2339  13.7408  14.4155  14.5300  16.0337

          k = 0.0829 0.4146 0.4146     band energies (ev):

   -44.9763 -21.6226 -21.6223 -21.5662 -13.7493  -5.6700  -5.1434  -5.0906
     0.9315   0.9805   1.3640   6.4089   6.7171   6.8341   7.9374   7.9644
     8.9081   9.7256   9.8917  10.5897  14.4260  14.4616  14.8408  16.2145

          k = 0.2487 0.2488 0.2488     band energies (ev):

   -44.9769 -21.5982 -21.5939 -21.5931 -13.8004  -5.7528  -5.1404  -5.1322
     0.7949   0.7971   1.5353   6.8492   7.5770   7.5846   8.1227   8.2884
     8.2952  10.0086  10.0130  10.0727  14.1012  14.1165  14.1273  17.1823

          k = 0.2487 0.2488 0.4146     band energies (ev):

   -44.9763 -21.6227 -21.5965 -21.5920 -13.7528  -5.6762  -5.0789  -5.0366
     0.6266   0.8216   1.2775   6.5571   7.2061   7.5467   7.6126   8.2695
     8.4597   9.7924  10.1255  10.1737  14.2246  14.6143  14.6567  17.1466

          k = 0.2487 0.4146 0.4146     band energies (ev):

   -44.9757 -21.6210 -21.6207 -21.5950 -13.7122  -5.3946  -5.0523  -5.0218
     0.5125   0.5616   0.9052   6.4202   6.8367   7.4034   7.6526   8.2146
     8.3069  10.0510  10.1660  10.5844  14.7360  14.7492  14.9633  17.4705

          k = 0.4145 0.4146 0.4146     band energies (ev):

   -44.9751 -21.6236 -21.6193 -21.6191 -13.6745  -5.0878  -4.9620  -4.9540
     0.2142   0.2170   0.3996   6.2880   6.8386   6.8426   8.0794   8.3533
     8.3549  10.5137  10.5201  10.6224  15.0912  15.0926  15.0975  18.0627

          k = 0.2487-0.0829 0.0829     band energies (ev):

   -44.9781 -21.6014 -21.5655 -21.5653 -13.9001  -6.0207  -5.2072  -5.1387
     1.0454   1.0636   1.3591   7.4135   8.0746   8.1618   8.6703   8.6828
     9.4370   9.4743  10.1609  10.1655  12.9045  13.6516  13.6623  15.4263

          k = 0.4145-0.0829 0.0829     band energies (ev):

   -44.9775 -21.6312 -21.5642 -21.5640 -13.8349  -6.1825  -5.1834  -4.9229
     1.0984   1.2308   1.4693   6.6639   7.8199   7.9019   8.1174   8.4509
     9.2131   9.3685   9.8061   9.9195  12.9665  14.3830  14.3929  15.4237

          k = 0.2487-0.2488 0.0829     band energies (ev):

   -44.9775 -21.5998 -21.5951 -21.5641 -13.8470  -5.9227  -5.1958  -5.1260
     0.9655   1.0654   1.4695   7.0796   7.6216   7.8375   8.2191   8.4393
     9.0317   9.7219   9.7879  10.2488  13.6310  13.7674  13.9970  15.9398

          k = 0.4145-0.2488 0.0829     band energies (ev):

   -44.9769 -21.6290 -21.5934 -21.5629 -13.7927  -5.9318  -5.1424  -5.0285
     0.9663   1.1553   1.3972   6.5774   7.1774   7.4904   7.9202   8.2845
     9.1428   9.4862   9.6894  10.2246  13.7382  14.4185  14.5319  16.0360

          k = 0.2487 0.4146 0.0829     band energies (ev):

   -44.9769 -21.6246 -21.5979 -21.5629 -13.7925  -5.9354  -5.1495  -5.0175
     0.9686   1.1527   1.3973   6.5839   7.1900   7.4751   7.9151   8.2913
     9.1343   9.4855   9.6851  10.2258  13.7491  14.4122  14.5327  16.0385

          k = 0.4145-0.4146 0.0829     band energies (ev):

   -44.9763 -21.6268 -21.6224 -21.5617 -13.7496  -5.6615  -5.1501  -5.0934
     0.9339   0.9828   1.3633   6.4077   6.7053   6.8379   7.9213   7.9664
     8.9131   9.7388   9.9062  10.5787  14.4266  14.4610  14.8421  16.2268

          k = 0.4145-0.2488 0.2488     band energies (ev):

   -44.9763 -21.6271 -21.5924 -21.5916 -13.7530  -5.6713  -5.0728  -5.0482
     0.6248   0.8249   1.2771   6.5524   7.1937   7.5528   7.6140   8.2735
     8.4647   9.8022  10.1251  10.1674  14.2213  14.6147  14.6576  17.1471

          k = 0.4145-0.4146 0.2488     band energies (ev):

   -44.9757 -21.6252 -21.6208 -21.5906 -13.7124  -5.3873  -5.0592  -5.0227
     0.5126   0.5640   0.9044   6.4189   6.8332   7.4000   7.6521   8.2136
     8.3085  10.0604  10.1775  10.5728  14.7337  14.7477  14.9647  17.4851

     highest occupied, lowest unoccupied level (ev):    10.6224   12.8211

!    total energy              =    -264.80674075 Ry
     Harris-Foulkes estimate   =    -264.80674076 Ry
     estimated scf accuracy    <          4.2E-09 Ry

     The total energy is the sum of the following terms:

     one-electron contribution =     -69.73317316 Ry
     hartree contribution      =      58.50379738 Ry
     xc contribution           =     -42.74847587 Ry
     ewald contribution        =    -210.82925535 Ry
     scf correction            =       0.00036624 Ry

     iteration # 11     ecut=   100.00 Ry     beta=0.60
     Davidson diagonalization with overlap
     ethr =  1.05E-11,  avg # of iterations =  3.2

     total cpu time spent up to now is       23.0 secs

     total energy              =    -264.80674075 Ry
     Harris-Foulkes estimate   =    -264.80674075 Ry
     estimated scf accuracy    <          1.5E-11 Ry

     iteration # 12     ecut=   100.00 Ry     beta=0.60
     Davidson diagonalization with overlap
     ethr =  1.00E-13,  avg # of iterations =  5.8

     total cpu time spent up to now is       23.6 secs

     total energy              =    -264.80674075 Ry
     Harris-Foulkes estimate   =    -264.80674075 Ry
     estimated scf accuracy    <          7.2E-12 Ry

     iteration # 13     ecut=   100.00 Ry     beta=0.60
     Davidson diagonalization with overlap
     ethr =  1.00E-13,  avg # of iterations =  1.2

     total cpu time spent up to now is       23.9 secs

     End of self-consistent calculation

          k = 0.0829 0.0829 0.0829 (  6850 PWs)   bands (ev):

   -44.9785 -21.5711 -21.5667 -21.5664 -13.9635  -5.9462  -5.2388  -5.2305
     0.9932   0.9936   1.1430   8.1474   8.3641   8.3643   9.1307   9.1354
     9.5659  10.1266  10.4616  10.4669  12.8212  12.8767  12.8871  15.4212

          k = 0.0829 0.0829 0.2488 (  6839 PWs)   bands (ev):

   -44.9779 -21.5967 -21.5698 -21.5652 -13.9000  -6.0242  -5.2132  -5.1282
     1.0461   1.0632   1.3583   7.4171   8.0770   8.1654   8.6649   8.6901
     9.4378   9.4632  10.1318  10.1870  12.9234  13.6413  13.6542  15.4334

          k = 0.0829 0.0829 0.4146 (  6839 PWs)   bands (ev):

   -44.9773 -21.6266 -21.5685 -21.5639 -13.8346  -6.1873  -5.1894  -4.9108
     1.0997   1.2314   1.4666   6.6730   7.8282   7.9046   8.1103   8.4466
     9.2220   9.3664   9.7729   9.9226  12.9856  14.3783  14.3883  15.4295

          k = 0.0829 0.2488 0.2488 (  6847 PWs)   bands (ev):

   -44.9773 -21.5957 -21.5943 -21.5685 -13.8469  -5.9267  -5.1891  -5.1277
     0.9640   1.0659   1.4691   7.0805   7.6360   7.8309   8.2225   8.4460
     9.0068   9.7200   9.7942  10.2539  13.6262  13.7670  13.9943  15.9413

          k = 0.0829 0.2488 0.4146 (  6833 PWs)   bands (ev):

   -44.9767 -21.6244 -21.5932 -21.5672 -13.7925  -5.9380  -5.1455  -5.0178
     0.9665   1.1527   1.3969   6.5838   7.1966   7.4757   7.9243   8.2898
     9.1214   9.4862   9.6801  10.2340  13.7409  14.4157  14.5302  16.0339

          k = 0.0829 0.4146 0.4146 (  6854 PWs)   bands (ev):

   -44.9761 -21.6224 -21.6221 -21.5660 -13.7494  -5.6698  -5.1432  -5.0904
     0.9314   0.9804   1.3639   6.4090   6.7172   6.8342   7.9375   7.9645
     8.9083   9.7257   9.8919  10.5899  14.4261  14.4617  14.8409  16.2147

          k = 0.2487 0.2488 0.2488 (  6881 PWs)   bands (ev):

   -44.9767 -21.5980 -21.5937 -21.5929 -13.8005  -5.7527  -5.1402  -5.1320
     0.7948   0.7970   1.5353   6.8493   7.5772   7.5848   8.1229   8.2885
     8.2953  10.0088  10.0132  10.0729  14.1014  14.1167  14.1275  17.1825

          k = 0.2487 0.2488 0.4146 (  6839 PWs)   bands (ev):

   -44.9761 -21.6225 -21.5963 -21.5918 -13.7529  -5.6761  -5.0788  -5.0364
     0.6265   0.8216   1.2774   6.5573   7.2062   7.5469   7.6128   8.2696
     8.4598   9.7926  10.1256  10.1739  14.2248  14.6145  14.6568  17.1468

          k = 0.2487 0.4146 0.4146 (  6851 PWs)   bands (ev):

   -44.9755 -21.6208 -21.6205 -21.5949 -13.7124  -5.3944  -5.0521  -5.0216
     0.5125   0.5615   0.9051   6.4204   6.8369   7.4035   7.6528   8.2147
     8.3070  10.0511  10.1661  10.5845  14.7362  14.7494  14.9634  17.4706

          k = 0.4145 0.4146 0.4146 (  6854 PWs)   bands (ev):

   -44.9749 -21.6234 -21.6191 -21.6189 -13.6747  -5.0877  -4.9619  -4.9539
     0.2141   0.2169   0.3995   6.2882   6.8388   6.8428   8.0795   8.3534
     8.3550  10.5138  10.5203  10.6226  15.0914  15.0928  15.0977  18.0627

          k = 0.2487-0.0829 0.0829 (  6839 PWs)   bands (ev):

   -44.9779 -21.6012 -21.5653 -21.5651 -13.9002  -6.0206  -5.2070  -5.1385
     1.0453   1.0635   1.3590   7.4136   8.0747   8.1619   8.6705   8.6829
     9.4371   9.4744  10.1610  10.1657  12.9047  13.6517  13.6625  15.4265

          k = 0.4145-0.0829 0.0829 (  6839 PWs)   bands (ev):

   -44.9773 -21.6310 -21.5640 -21.5638 -13.8350  -6.1824  -5.1832  -4.9227
     1.0984   1.2307   1.4692   6.6640   7.8200   7.9021   8.1175   8.4510
     9.2132   9.3687   9.8063   9.9196  12.9667  14.3832  14.3931  15.4239

          k = 0.2487-0.2488 0.0829 (  6847 PWs)   bands (ev):

   -44.9773 -21.5996 -21.5949 -21.5640 -13.8471  -5.9226  -5.1956  -5.1258
     0.9654   1.0654   1.4694   7.0797   7.6217   7.8376   8.2192   8.4394
     9.0319   9.7221   9.7881  10.2489  13.6312  13.7675  13.9972  15.9400

          k = 0.4145-0.2488 0.0829 (  6833 PWs)   bands (ev):

   -44.9767 -21.6288 -21.5932 -21.5627 -13.7928  -5.9316  -5.1422  -5.0284
     0.9662   1.1552   1.3971   6.5775   7.1776   7.4905   7.9203   8.2846
     9.1429   9.4864   9.6895  10.2248  13.7384  14.4186  14.5321  16.0362

          k = 0.2487 0.4146 0.0829 (  6833 PWs)   bands (ev):

   -44.9767 -21.6244 -21.5977 -21.5627 -13.7926  -5.9352  -5.1493  -5.0173
     0.9685   1.1527   1.3972   6.5840   7.1901   7.4753   7.9153   8.2914
     9.1344   9.4857   9.6853  10.2259  13.7493  14.4123  14.5329  16.0387

          k = 0.4145-0.4146 0.0829 (  6854 PWs)   bands (ev):

   -44.9761 -21.6266 -21.6222 -21.5615 -13.7497  -5.6613  -5.1500  -5.0933
     0.9338   0.9827   1.3632   6.4079   6.7054   6.8381   7.9214   7.9665
     8.9133   9.7389   9.9063  10.5788  14.4267  14.4611  14.8422  16.2270

          k = 0.4145-0.2488 0.2488 (  6839 PWs)   bands (ev):

   -44.9761 -21.6269 -21.5922 -21.5914 -13.7531  -5.6711  -5.0726  -5.0480
     0.6247   0.8248   1.2770   6.5525   7.1939   7.5529   7.6142   8.2736
     8.4648   9.8024  10.1252  10.1676  14.2215  14.6148  14.6578  17.1472

          k = 0.4145-0.4146 0.2488 (  6851 PWs)   bands (ev):

   -44.9755 -21.6250 -21.6206 -21.5904 -13.7125  -5.3872  -5.0590  -5.0225
     0.5125   0.5639   0.9043   6.4191   6.8334   7.4001   7.6523   8.2137
     8.3086  10.0605  10.1776  10.5729  14.7339  14.7479  14.9649  17.4853

     highest occupied, lowest unoccupied level (ev):    10.6226   12.8212

!    total energy              =    -264.80674075 Ry
     Harris-Foulkes estimate   =    -264.80674075 Ry
     estimated scf accuracy    <          1.8E-13 Ry

     The total energy is the sum of the following terms:

     one-electron contribution =     -69.73281240 Ry
     hartree contribution      =      58.50380353 Ry
     xc contribution           =     -42.74847654 Ry
     ewald contribution        =    -210.82925535 Ry

     convergence has been achieved in  13 iterations

     Forces acting on atoms (cartesian axes, Ry/au):

     atom    1 type  3   force =    -0.00461463    0.00000000    0.00000000
     atom    2 type  2   force =     0.00121437    0.00000000    0.00000000
     atom    3 type  1   force =     0.00420995    0.00000000    0.00000000
     atom    4 type  1   force =    -0.00040485    0.00000000    0.00000000
     atom    5 type  1   force =    -0.00040485    0.00000000    0.00000000

     Total force =     0.006389     Total SCF correction =     0.000000


     Computing stress (Cartesian axis) and pressure

          total   stress  (Ry/bohr**3)                   (kbar)     P=   -1.03
  -0.00000079   0.00000000   0.00000000         -0.12      0.00      0.00
   0.00000000  -0.00001016   0.00000000          0.00     -1.49      0.00
   0.00000000   0.00000000  -0.00001016          0.00      0.00     -1.49


     number of scf cycles    =   2
     number of bfgs steps    =   1

     enthalpy old            =    -264.8060800668 Ry
     enthalpy new            =    -264.8067407542 Ry

     CASE: enthalpy_new < enthalpy_old

     new trust radius        =       0.0048870477 bohr
     new conv_thr            =            4.6E-14 Ry

     new unit-cell volume =    411.38630 a.u.^3 (    60.96116 Ang^3 )
     density =      6.35166 g/cm^3

CELL_PARAMETERS (alat=  7.40000000)
   1.005476387   0.000000000   0.000000000
   0.000000000   1.004827232   0.000000000
   0.000000000   0.000000000   1.004827232

ATOMIC_POSITIONS (crystal)
Ba      -0.001466824   0.000000000   0.000000000
Ti       0.490612210   0.500000000   0.500000000
O        0.001115030   0.500000000   0.500000000
O        0.499869792   0.000000000   0.500000000
O        0.499869792   0.500000000   0.000000000



     Writing output data file bto.save
     NEW-OLD atomic charge density approx. for the potential
     extrapolated charge   39.99922, renormalised to   40.00000

     total cpu time spent up to now is       25.0 secs

     per-process dynamical memory:    78.0 Mb

     Self-consistent Calculation

     iteration #  1     ecut=   100.00 Ry     beta=0.60
     Davidson diagonalization with overlap
     ethr =  1.00E-06,  avg # of iterations =  4.0

     total cpu time spent up to now is       25.5 secs

     total energy              =    -264.80670485 Ry
     Harris-Foulkes estimate   =    -264.80808166 Ry
     estimated scf accuracy    <       0.00027895 Ry

     iteration #  2     ecut=   100.00 Ry     beta=0.60
     Davidson diagonalization with overlap
     ethr =  6.97E-07,  avg # of iterations =  2.2

     total cpu time spent up to now is       25.9 secs

     total energy              =    -264.80677505 Ry
     Harris-Foulkes estimate   =    -264.80678602 Ry
     estimated scf accuracy    <       0.00001917 Ry

     iteration #  3     ecut=   100.00 Ry     beta=0.60
     Davidson diagonalization with overlap
     ethr =  4.79E-08,  avg # of iterations =  2.6

     total cpu time spent up to now is       26.3 secs

     total energy              =    -264.80677947 Ry
     Harris-Foulkes estimate   =    -264.80677970 Ry
     estimated scf accuracy    <       0.00000094 Ry

     iteration #  4     ecut=   100.00 Ry     beta=0.60
     Davidson diagonalization with overlap
     ethr =  2.35E-09,  avg # of iterations =  4.2

     total cpu time spent up to now is       26.8 secs

     total energy              =    -264.80677956 Ry
     Harris-Foulkes estimate   =    -264.80677977 Ry
     estimated scf accuracy    <       0.00000044 Ry

     iteration #  5     ecut=   100.00 Ry     beta=0.60
     Davidson diagonalization with overlap
     ethr =  1.11E-09,  avg # of iterations =  3.2

     total cpu time spent up to now is       27.2 secs

     total energy              =    -264.80677968 Ry
     Harris-Foulkes estimate   =    -264.80677975 Ry
     estimated scf accuracy    <       0.00000022 Ry

     iteration #  6     ecut=   100.00 Ry     beta=0.60
     Davidson diagonalization with overlap
     ethr =  5.48E-10,  avg # of iterations =  2.9

     total cpu time spent up to now is       27.6 secs

     total energy              =    -264.80677972 Ry
     Harris-Foulkes estimate   =    -264.80677972 Ry
     estimated scf accuracy    <          6.9E-09 Ry

     iteration #  7     ecut=   100.00 Ry     beta=0.60
     Davidson diagonalization with overlap
     ethr =  1.71E-11,  avg # of iterations =  5.0

     total cpu time spent up to now is       28.2 secs

     total energy              =    -264.80677973 Ry
     Harris-Foulkes estimate   =    -264.80677973 Ry
     estimated scf accuracy    <          1.6E-09 Ry

     iteration #  8     ecut=   100.00 Ry     beta=0.60
     Davidson diagonalization with overlap
     ethr =  4.12E-12,  avg # of iterations =  2.6

     total cpu time spent up to now is       28.6 secs

     total energy              =    -264.80677973 Ry
     Harris-Foulkes estimate   =    -264.80677973 Ry
     estimated scf accuracy    <          2.1E-11 Ry

     iteration #  9     ecut=   100.00 Ry     beta=0.60
     Davidson diagonalization with overlap
     ethr =  1.00E-13,  avg # of iterations =  4.2

     total cpu time spent up to now is       29.1 secs

     total energy              =    -264.80677973 Ry
     Harris-Foulkes estimate   =    -264.80677973 Ry
     estimated scf accuracy    <          3.1E-12 Ry

     iteration # 10     ecut=   100.00 Ry     beta=0.60
     Davidson diagonalization with overlap
     ethr =  1.00E-13,  avg # of iterations =  1.0

     total cpu time spent up to now is       29.4 secs

          k = 0.0829 0.0829 0.0829     band energies (ev):

   -44.9772 -21.5701 -21.5655 -21.5651 -13.9631  -5.9457  -5.2383  -5.2305
     0.9938   0.9938   1.1434   8.1480   8.3648   8.3652   9.1307   9.1349
     9.5662  10.1261  10.4618  10.4671  12.8225  12.8784  12.8887  15.4235

          k = 0.0829 0.0829 0.2488     band energies (ev):

   -44.9766 -21.5955 -21.5688 -21.5640 -13.8996  -6.0237  -5.2128  -5.1281
     1.0465   1.0635   1.3589   7.4175   8.0776   8.1658   8.6647   8.6893
     9.4376   9.4634  10.1320  10.1871  12.9247  13.6431  13.6559  15.4348

          k = 0.0829 0.0829 0.4147     band energies (ev):

   -44.9760 -21.6254 -21.5674 -21.5627 -13.8341  -6.1867  -5.1890  -4.9104
     1.1001   1.2318   1.4670   6.6727   7.8286   7.9049   8.1100   8.4463
     9.2218   9.3666   9.7724   9.9230  12.9868  14.3805  14.3903  15.4307

          k = 0.0829 0.2488 0.2488     band energies (ev):

   -44.9760 -21.5945 -21.5931 -21.5675 -13.8464  -5.9259  -5.1888  -5.1274
     0.9642   1.0661   1.4695   7.0808   7.6366   7.8308   8.2222   8.4445
     9.0062   9.7210   9.7945  10.2547  13.6276  13.7690  13.9963  15.9417

          k = 0.0829 0.2488 0.4147     band energies (ev):

   -44.9753 -21.6233 -21.5920 -21.5662 -13.7920  -5.9372  -5.1450  -5.0173
     0.9666   1.1528   1.3970   6.5835   7.1961   7.4763   7.9234   8.2887
     9.1209   9.4869   9.6813  10.2348  13.7426  14.4178  14.5324  16.0341

          k = 0.0829 0.4147 0.4147     band energies (ev):

   -44.9747 -21.6213 -21.6209 -21.5650 -13.7489  -5.6688  -5.1427  -5.0898
     0.9312   0.9803   1.3640   6.4089   6.7164   6.8337   7.9363   7.9631
     8.9083   9.7272   9.8935  10.5910  14.4283  14.4640  14.8434  16.2142

          k = 0.2486 0.2488 0.2488     band energies (ev):

   -44.9754 -21.5969 -21.5926 -21.5917 -13.8001  -5.7523  -5.1399  -5.1318
     0.7950   0.7976   1.5357   6.8497   7.5781   7.5853   8.1229   8.2883
     8.2949  10.0098  10.0128  10.0731  14.1026  14.1181  14.1293  17.1857

          k = 0.2486 0.2488 0.4147     band energies (ev):

   -44.9747 -21.6214 -21.5952 -21.5906 -13.7524  -5.6756  -5.0784  -5.0360
     0.6270   0.8217   1.2778   6.5571   7.2061   7.5469   7.6140   8.2693
     8.4594   9.7928  10.1262  10.1742  14.2260  14.6165  14.6588  17.1476

          k = 0.2486 0.4147 0.4147     band energies (ev):

   -44.9741 -21.6196 -21.6194 -21.5938 -13.7119  -5.3937  -5.0516  -5.0211
     0.5127   0.5614   0.9054   6.4202   6.8364   7.4028   7.6536   8.2143
     8.3067  10.0516  10.1670  10.5855  14.7380  14.7513  14.9658  17.4699

          k = 0.4144 0.4147 0.4147     band energies (ev):

   -44.9735 -21.6223 -21.6180 -21.6178 -13.6742  -5.0873  -4.9615  -4.9534
     0.2142   0.2176   0.3999   6.2888   6.8398   6.8422   8.0795   8.3540
     8.3545  10.5136  10.5210  10.6229  15.0932  15.0943  15.0996  18.0628

          k = 0.2486-0.0829 0.0829     band energies (ev):

   -44.9766 -21.6001 -21.5641 -21.5639 -13.8999  -6.0206  -5.2070  -5.1379
     1.0459   1.0641   1.3594   7.4145   8.0760   8.1633   8.6703   8.6829
     9.4376   9.4747  10.1613  10.1663  12.9062  13.6524  13.6630  15.4289

          k = 0.4144-0.0829 0.0829     band energies (ev):

   -44.9760 -21.6298 -21.5628 -21.5626 -13.8347  -6.1825  -5.1833  -4.9223
     1.0988   1.2313   1.4698   6.6658   7.8223   7.9037   8.1168   8.4510
     9.2141   9.3691   9.8069   9.9205  12.9682  14.3833  14.3931  15.4263

          k = 0.2486-0.2488 0.0829     band energies (ev):

   -44.9760 -21.5985 -21.5937 -21.5627 -13.8467  -5.9224  -5.1952  -5.1256
     0.9659   1.0659   1.4699   7.0805   7.6228   7.8377   8.2203   8.4391
     9.0320   9.7222   9.7885  10.2490  13.6324  13.7688  13.9983  15.9423

          k = 0.4144-0.2488 0.0829     band energies (ev):

   -44.9754 -21.6277 -21.5920 -21.5615 -13.7925  -5.9316  -5.1421  -5.0281
     0.9666   1.1559   1.3977   6.5792   7.1794   7.4898   7.9216   8.2847
     9.1432   9.4868   9.6900  10.2250  13.7402  14.4188  14.5325  16.0387

          k = 0.2486 0.4147 0.0829     band energies (ev):

   -44.9753 -21.6233 -21.5966 -21.5615 -13.7922  -5.9350  -5.1490  -5.0169
     0.9690   1.1531   1.3978   6.5839   7.1903   7.4760   7.9165   8.2912
     9.1344   9.4859   9.6852  10.2257  13.7499  14.4144  14.5346  16.0407

          k = 0.4144-0.4147 0.0829     band energies (ev):

   -44.9747 -21.6255 -21.6211 -21.5602 -13.7494  -5.6614  -5.1497  -5.0930
     0.9345   0.9834   1.3638   6.4088   6.7061   6.8385   7.9237   7.9657
     8.9136   9.7389   9.9062  10.5787  14.4280  14.4621  14.8432  16.2294

          k = 0.4144-0.2488 0.2488     band energies (ev):

   -44.9747 -21.6258 -21.5910 -21.5903 -13.7527  -5.6710  -5.0724  -5.0478
     0.6249   0.8257   1.2776   6.5542   7.1950   7.5536   7.6140   8.2737
     8.4646   9.8033  10.1249  10.1681  14.2234  14.6156  14.6584  17.1504

          k = 0.4144-0.4147 0.2488     band energies (ev):

   -44.9741 -21.6239 -21.6195 -21.5892 -13.7121  -5.3870  -5.0588  -5.0222
     0.5129   0.5646   0.9048   6.4199   6.8341   7.4006   7.6529   8.2136
     8.3086  10.0608  10.1778  10.5728  14.7353  14.7494  14.9661  17.4878

     highest occupied, lowest unoccupied level (ev):    10.6229   12.8225

!    total energy              =    -264.80677973 Ry
     Harris-Foulkes estimate   =    -264.80677973 Ry
     estimated scf accuracy    <          2.6E-13 Ry

     The total energy is the sum of the following terms:

     one-electron contribution =     -69.73612360 Ry
     hartree contribution      =      58.50639006 Ry
     xc contribution           =     -42.74878841 Ry
     ewald contribution        =    -210.82825752 Ry
     scf correction            =      -0.00000026 Ry

     iteration # 11     ecut=   100.00 Ry     beta=0.60
     Davidson diagonalization with overlap
     ethr =  1.00E-13,  avg # of iterations =  1.0

     total cpu time spent up to now is       29.7 secs

     End of self-consistent calculation

          k = 0.0829 0.0829 0.0829 (  6850 PWs)   bands (ev):

   -44.9772 -21.5701 -21.5655 -21.5651 -13.9631  -5.9457  -5.2383  -5.2305
     0.9938   0.9938   1.1434   8.1480   8.3648   8.3652   9.1307   9.1349
     9.5662  10.1261  10.4618  10.4671  12.8225  12.8784  12.8887  15.4235

          k = 0.0829 0.0829 0.2488 (  6839 PWs)   bands (ev):

   -44.9766 -21.5955 -21.5688 -21.5640 -13.8996  -6.0237  -5.2128  -5.1281
     1.0465   1.0635   1.3589   7.4175   8.0776   8.1658   8.6647   8.6893
     9.4376   9.4634  10.1320  10.1871  12.9247  13.6431  13.6559  15.4348

          k = 0.0829 0.0829 0.4147 (  6839 PWs)   bands (ev):

   -44.9760 -21.6254 -21.5674 -21.5627 -13.8341  -6.1867  -5.1890  -4.9104
     1.1001   1.2318   1.4670   6.6727   7.8286   7.9049   8.1100   8.4463
     9.2218   9.3666   9.7724   9.9230  12.9868  14.3805  14.3903  15.4307

          k = 0.0829 0.2488 0.2488 (  6847 PWs)   bands (ev):

   -44.9760 -21.5945 -21.5931 -21.5675 -13.8464  -5.9259  -5.1888  -5.1274
     0.9642   1.0661   1.4695   7.0808   7.6366   7.8308   8.2222   8.4445
     9.0062   9.7210   9.7945  10.2547  13.6276  13.7690  13.9963  15.9417

          k = 0.0829 0.2488 0.4147 (  6833 PWs)   bands (ev):

   -44.9753 -21.6233 -21.5920 -21.5662 -13.7920  -5.9372  -5.1450  -5.0173
     0.9666   1.1528   1.3970   6.5835   7.1961   7.4763   7.9234   8.2887
     9.1209   9.4869   9.6813  10.2348  13.7426  14.4178  14.5324  16.0341

          k = 0.0829 0.4147 0.4147 (  6854 PWs)   bands (ev):

   -44.9747 -21.6213 -21.6209 -21.5650 -13.7489  -5.6688  -5.1427  -5.0898
     0.9312   0.9803   1.3640   6.4089   6.7164   6.8337   7.9363   7.9631
     8.9083   9.7272   9.8935  10.5910  14.4283  14.4640  14.8434  16.2142

          k = 0.2486 0.2488 0.2488 (  6881 PWs)   bands (ev):

   -44.9754 -21.5969 -21.5926 -21.5917 -13.8001  -5.7523  -5.1399  -5.1318
     0.7950   0.7976   1.5357   6.8497   7.5781   7.5853   8.1229   8.2883
     8.2949  10.0098  10.0128  10.0731  14.1026  14.1181  14.1293  17.1857

          k = 0.2486 0.2488 0.4147 (  6839 PWs)   bands (ev):

   -44.9747 -21.6214 -21.5952 -21.5906 -13.7524  -5.6756  -5.0784  -5.0360
     0.6270   0.8217   1.2778   6.5571   7.2061   7.5469   7.6140   8.2693
     8.4594   9.7928  10.1262  10.1742  14.2260  14.6165  14.6588  17.1476

          k = 0.2486 0.4147 0.4147 (  6851 PWs)   bands (ev):

   -44.9741 -21.6196 -21.6194 -21.5938 -13.7119  -5.3937  -5.0516  -5.0211
     0.5127   0.5614   0.9054   6.4202   6.8364   7.4028   7.6536   8.2143
     8.3067  10.0516  10.1670  10.5855  14.7380  14.7513  14.9658  17.4699

          k = 0.4144 0.4147 0.4147 (  6854 PWs)   bands (ev):

   -44.9735 -21.6223 -21.6180 -21.6178 -13.6742  -5.0873  -4.9615  -4.9534
     0.2142   0.2176   0.3999   6.2888   6.8398   6.8422   8.0795   8.3540
     8.3545  10.5136  10.5210  10.6229  15.0932  15.0943  15.0996  18.0628

          k = 0.2486-0.0829 0.0829 (  6839 PWs)   bands (ev):

   -44.9766 -21.6001 -21.5641 -21.5639 -13.8999  -6.0206  -5.2070  -5.1379
     1.0459   1.0641   1.3594   7.4145   8.0760   8.1633   8.6703   8.6829
     9.4376   9.4747  10.1613  10.1663  12.9062  13.6524  13.6630  15.4289

          k = 0.4144-0.0829 0.0829 (  6839 PWs)   bands (ev):

   -44.9760 -21.6298 -21.5628 -21.5626 -13.8347  -6.1825  -5.1833  -4.9223
     1.0988   1.2313   1.4698   6.6658   7.8223   7.9037   8.1168   8.4510
     9.2141   9.3691   9.8069   9.9205  12.9682  14.3833  14.3931  15.4263

          k = 0.2486-0.2488 0.0829 (  6847 PWs)   bands (ev):

   -44.9760 -21.5985 -21.5937 -21.5627 -13.8467  -5.9224  -5.1952  -5.1256
     0.9659   1.0659   1.4699   7.0805   7.6228   7.8377   8.2203   8.4391
     9.0320   9.7222   9.7885  10.2490  13.6324  13.7688  13.9983  15.9423

          k = 0.4144-0.2488 0.0829 (  6833 PWs)   bands (ev):

   -44.9754 -21.6277 -21.5920 -21.5615 -13.7925  -5.9316  -5.1421  -5.0281
     0.9666   1.1559   1.3977   6.5792   7.1794   7.4898   7.9216   8.2847
     9.1432   9.4868   9.6900  10.2250  13.7402  14.4188  14.5325  16.0387

          k = 0.2486 0.4147 0.0829 (  6833 PWs)   bands (ev):

   -44.9753 -21.6233 -21.5966 -21.5615 -13.7922  -5.9350  -5.1490  -5.0169
     0.9690   1.1531   1.3978   6.5839   7.1903   7.4760   7.9165   8.2912
     9.1344   9.4859   9.6852  10.2257  13.7499  14.4144  14.5346  16.0407

          k = 0.4144-0.4147 0.0829 (  6854 PWs)   bands (ev):

   -44.9747 -21.6255 -21.6211 -21.5602 -13.7494  -5.6614  -5.1497  -5.0930
     0.9345   0.9834   1.3638   6.4088   6.7061   6.8385   7.9237   7.9657
     8.9136   9.7389   9.9062  10.5787  14.4280  14.4621  14.8432  16.2294

          k = 0.4144-0.2488 0.2488 (  6839 PWs)   bands (ev):

   -44.9747 -21.6258 -21.5910 -21.5903 -13.7527  -5.6710  -5.0724  -5.0478
     0.6249   0.8257   1.2776   6.5542   7.1950   7.5536   7.6140   8.2737
     8.4646   9.8033  10.1249  10.1681  14.2234  14.6156  14.6584  17.1504

          k = 0.4144-0.4147 0.2488 (  6851 PWs)   bands (ev):

   -44.9741 -21.6239 -21.6195 -21.5892 -13.7121  -5.3870  -5.0588  -5.0222
     0.5129   0.5646   0.9048   6.4199   6.8341   7.4006   7.6529   8.2136
     8.3086  10.0608  10.1778  10.5728  14.7353  14.7494  14.9661  17.4878

     highest occupied, lowest unoccupied level (ev):    10.6229   12.8225

!    total energy              =    -264.80677973 Ry
     Harris-Foulkes estimate   =    -264.80677973 Ry
     estimated scf accuracy    <          9.0E-15 Ry

     The total energy is the sum of the following terms:

     one-electron contribution =     -69.73612307 Ry
     hartree contribution      =      58.50638907 Ry
     xc contribution           =     -42.74878821 Ry
     ewald contribution        =    -210.82825752 Ry

     convergence has been achieved in  11 iterations

     Forces acting on atoms (cartesian axes, Ry/au):

     atom    1 type  3   force =    -0.00371918    0.00000000    0.00000000
     atom    2 type  2   force =     0.00047266    0.00000000    0.00000000
     atom    3 type  1   force =     0.00323563    0.00000000    0.00000000
     atom    4 type  1   force =     0.00000545    0.00000000    0.00000000
     atom    5 type  1   force =     0.00000545    0.00000000    0.00000000

     Total force =     0.004952     Total SCF correction =     0.000000


     Computing stress (Cartesian axis) and pressure

          total   stress  (Ry/bohr**3)                   (kbar)     P=   -0.87
  -0.00000119   0.00000000   0.00000000         -0.18      0.00      0.00
   0.00000000  -0.00000832   0.00000000          0.00     -1.22      0.00
   0.00000000   0.00000000  -0.00000832          0.00      0.00     -1.22


     number of scf cycles    =   3
     number of bfgs steps    =   2

     enthalpy old            =    -264.8067407542 Ry
     enthalpy new            =    -264.8067797283 Ry

     CASE: enthalpy_new < enthalpy_old

     new trust radius        =       0.0053765990 bohr
     new conv_thr            =            1.0E-14 Ry

     new unit-cell volume =    411.35353 a.u.^3 (    60.95630 Ang^3 )
     density =      6.35216 g/cm^3

CELL_PARAMETERS (alat=  7.40000000)
   1.005624605   0.000000000   0.000000000
   0.000000000   1.004713153   0.000000000
   0.000000000   0.000000000   1.004713153

ATOMIC_POSITIONS (crystal)
Ba      -0.002189434   0.000000000   0.000000000
Ti       0.490720735   0.500000000   0.500000000
O        0.001738814   0.500000000   0.500000000
O        0.499864943   0.000000000   0.500000000
O        0.499864943   0.500000000   0.000000000



     Writing output data file bto.save
     NEW-OLD atomic charge density approx. for the potential
     extrapolated charge   39.99769, renormalised to   40.00000

     total cpu time spent up to now is       30.8 secs

     per-process dynamical memory:    78.0 Mb

     Self-consistent Calculation

     iteration #  1     ecut=   100.00 Ry     beta=0.60
     Davidson diagonalization with overlap
     ethr =  1.00E-06,  avg # of iterations =  4.0

     total cpu time spent up to now is       31.4 secs

     total energy              =    -264.80671821 Ry
     Harris-Foulkes estimate   =    -264.81046431 Ry
     estimated scf accuracy    <       0.00034059 Ry

     iteration #  2     ecut=   100.00 Ry     beta=0.60
     Davidson diagonalization with overlap
     ethr =  8.51E-07,  avg # of iterations =  2.2

     total cpu time spent up to now is       31.7 secs

     total energy              =    -264.80680418 Ry
     Harris-Foulkes estimate   =    -264.80681867 Ry
     estimated scf accuracy    <       0.00002520 Ry

     iteration #  3     ecut=   100.00 Ry     beta=0.60
     Davidson diagonalization with overlap
[...]
     total energy              =    -264.79626831 Ry
     Harris-Foulkes estimate   =    -264.81232643 Ry
     estimated scf accuracy    <       0.03967809 Ry

     iteration # 22     ecut=   100.00 Ry     beta=0.60
     Davidson diagonalization with overlap
     ethr =  9.92E-05,  avg # of iterations =  3.8

     total cpu time spent up to now is      122.4 secs

     total energy              =    -264.80573262 Ry
     Harris-Foulkes estimate   =    -264.80798197 Ry
     estimated scf accuracy    <       0.00555162 Ry

     iteration # 23     ecut=   100.00 Ry     beta=0.60
     Davidson diagonalization with overlap
     ethr =  1.39E-05,  avg # of iterations =  4.5

     total cpu time spent up to now is      122.9 secs

     total energy              =    -264.80692263 Ry
     Harris-Foulkes estimate   =    -264.80726179 Ry
     estimated scf accuracy    <       0.00083017 Ry

     iteration # 24     ecut=   100.00 Ry     beta=0.60
     Davidson diagonalization with overlap
     ethr =  2.08E-06,  avg # of iterations =  5.1

     total cpu time spent up to now is      123.6 secs

     total energy              =    -264.80721932 Ry
     Harris-Foulkes estimate   =    -264.80727364 Ry
     estimated scf accuracy    <       0.00040804 Ry

     iteration # 25     ecut=   100.00 Ry     beta=0.60
     Davidson diagonalization with overlap
     ethr =  1.02E-06,  avg # of iterations =  1.2

     total cpu time spent up to now is      123.9 secs

     total energy              =    -264.80719416 Ry
     Harris-Foulkes estimate   =    -264.80723387 Ry
     estimated scf accuracy    <       0.00019415 Ry

     iteration # 26     ecut=   100.00 Ry     beta=0.60
     Davidson diagonalization with overlap
     ethr =  4.85E-07,  avg # of iterations =  2.4

     total cpu time spent up to now is      124.2 secs

     total energy              =    -264.80719239 Ry
     Harris-Foulkes estimate   =    -264.80720725 Ry
     estimated scf accuracy    <       0.00004253 Ry

     iteration # 27     ecut=   100.00 Ry     beta=0.60
     Davidson diagonalization with overlap
     ethr =  1.06E-07,  avg # of iterations =  3.5

     total cpu time spent up to now is      124.6 secs

     total energy              =    -264.80719961 Ry
     Harris-Foulkes estimate   =    -264.80720007 Ry
     estimated scf accuracy    <       0.00000109 Ry

     iteration # 28     ecut=   100.00 Ry     beta=0.60
     Davidson diagonalization with overlap
     ethr =  2.72E-09,  avg # of iterations =  5.1

     total cpu time spent up to now is      125.2 secs

     total energy              =    -264.80720080 Ry
     Harris-Foulkes estimate   =    -264.80720082 Ry
     estimated scf accuracy    <       0.00000009 Ry

     iteration # 29     ecut=   100.00 Ry     beta=0.60
     Davidson diagonalization with overlap
     ethr =  2.21E-10,  avg # of iterations =  3.6

     total cpu time spent up to now is      125.7 secs

     total energy              =    -264.80720075 Ry
     Harris-Foulkes estimate   =    -264.80720081 Ry
     estimated scf accuracy    <          2.8E-09 Ry

     iteration # 30     ecut=   100.00 Ry     beta=0.60
     Davidson diagonalization with overlap
     ethr =  7.07E-12,  avg # of iterations =  4.9

     total cpu time spent up to now is      126.3 secs

          k = 0.0823 0.0831 0.0831     band energies (ev):

   -44.9736 -21.5962 -21.5622 -21.5618 -14.0327  -5.9883  -5.2953  -5.2586
     0.9223   0.9309   1.0755   8.1015   8.3043   8.3174   9.0232   9.0397
     9.4804   9.9617  10.3644  10.3740  12.8421  12.9727  13.0012  15.4689

          k = 0.0823 0.0831 0.2493     band energies (ev):

   -44.9730 -21.5951 -21.5926 -21.5606 -13.9690  -6.0649  -5.2634  -5.1616
     0.9752   0.9951   1.2866   7.3757   8.0160   8.1222   8.5798   8.6193
     9.3250   9.3760  10.0099  10.1240  13.0277  13.6453  13.6703  15.4843

          k = 0.0823 0.0831 0.4154     band energies (ev):

   -44.9724 -21.6233 -21.5935 -21.5593 -13.9034  -6.2264  -5.2377  -4.9454
     1.0314   1.1614   1.3851   6.6395   7.7781   7.8610   8.0471   8.3720
     9.1624   9.2801   9.5925   9.8628  13.0888  14.3774  14.4029  15.4700

          k = 0.0823 0.2493 0.2493     band energies (ev):

   -44.9724 -21.5940 -21.5912 -21.5904 -13.9157  -5.9701  -5.2154  -5.1767
     0.8839   0.9936   1.3924   7.0395   7.5889   7.7862   8.1635   8.3838
     8.8261   9.6410   9.7687  10.2205  13.6158  13.7974  14.0054  15.9325

          k = 0.0823 0.2493 0.4154     band energies (ev):

   -44.9717 -21.6212 -21.5924 -21.5891 -13.8610  -5.9806  -5.1847  -5.0497
     0.8876   1.0681   1.3140   6.5484   7.1492   7.4428   7.8641   8.2145
     8.9689   9.4298   9.6312  10.2126  13.7482  14.4324  14.5364  15.9864

          k = 0.0823 0.4154 0.4154     band energies (ev):

   -44.9711 -21.6191 -21.6188 -21.5909 -13.8176  -5.7194  -5.1679  -5.1218
     0.8349   0.8884   1.2823   6.3684   6.6695   6.8137   7.8666   7.8953
     8.8419   9.6502   9.8118  10.5800  14.4356  14.4859  14.8489  16.0845

          k = 0.2469 0.2493 0.2493     band energies (ev):

   -44.9718 -21.6206 -21.5901 -21.5891 -13.8725  -5.7967  -5.2040  -5.1608
     0.7182   0.7423   1.4586   6.8107   7.5034   7.5389   8.1029   8.2194
     8.2567   9.9275   9.9278  10.0432  14.0717  14.1174  14.1526  17.1295

          k = 0.2469 0.2493 0.4154     band energies (ev):

   -44.9712 -21.6197 -21.6186 -21.5879 -13.8244  -5.7255  -5.1336  -5.0668
     0.5680   0.7439   1.2034   6.5198   7.1621   7.4806   7.6113   8.2014
     8.3931   9.7153  10.0426  10.1428  14.2186  14.6112  14.6604  17.0944

          k = 0.2469 0.4154 0.4154     band energies (ev):

   -44.9706 -21.6181 -21.6173 -21.6169 -13.7834  -5.4568  -5.0805  -5.0615
     0.4466   0.4782   0.8390   6.3750   6.8170   7.3434   7.6301   8.1544
     8.2418   9.9612  10.0769  10.5739  14.7324  14.7504  14.9632  17.2815

          k = 0.4114 0.4154 0.4154     band energies (ev):

   -44.9700 -21.6437 -21.6160 -21.6159 -13.7486  -5.1507  -5.0250  -4.9865
     0.1428   0.1704   0.3462   6.2534   6.8230   6.8438   8.0203   8.2872
     8.3037  10.4153  10.4589  10.5756  15.0630  15.0646  15.0901  17.7949

          k = 0.2469-0.0831 0.0831     band energies (ev):

   -44.9731 -21.6240 -21.5609 -21.5606 -13.9731  -6.0591  -5.2364  -5.2099
     0.9778   1.0005   1.2867   7.3671   8.0187   8.1113   8.6011   8.6121
     9.3623   9.4289  10.0808  10.1177  12.9084  13.6881  13.7048  15.4706

          k = 0.4114-0.0831 0.0831     band energies (ev):

   -44.9725 -21.6515 -21.5597 -21.5595 -13.9119  -6.2138  -5.2140  -5.0146
     1.0253   1.1603   1.4081   6.6349   7.7613   7.8657   8.0918   8.3974
     9.1453   9.3099   9.7756   9.9089  12.9685  14.3666  14.3870  15.4686

          k = 0.2469-0.2493 0.0831     band energies (ev):

   -44.9725 -21.6222 -21.5912 -21.5595 -13.9196  -5.9622  -5.2573  -5.1633
     0.9018   0.9993   1.3961   7.0473   7.5162   7.8302   8.1746   8.3750
     8.9890   9.6297   9.7425  10.1651  13.6462  13.7927  13.9966  15.9805

          k = 0.4114-0.2493 0.0831     band energies (ev):

   -44.9719 -21.6493 -21.5895 -21.5583 -13.8690  -5.9635  -5.1809  -5.1131
     0.8942   1.1002   1.3277   6.5583   7.0891   7.5102   7.8861   8.2154
     9.1135   9.4314   9.6663  10.1371  13.7404  14.4074  14.5005  16.0732

          k = 0.2469 0.4154 0.0831     band energies (ev):

   -44.9718 -21.6215 -21.6202 -21.5582 -13.8646  -5.9791  -5.2124  -5.0491
     0.9107   1.0781   1.3277   6.5524   7.1304   7.4540   7.8573   8.2464
     9.0453   9.4262   9.6191  10.1355  13.7863  14.4124  14.5347  16.0745

          k = 0.4114-0.4154 0.0831     band energies (ev):

   -44.9713 -21.6471 -21.6192 -21.5571 -13.8250  -5.6993  -5.2280  -5.1338
     0.8693   0.9268   1.2943   6.3893   6.6418   6.8589   7.8373   7.9407
     8.8799   9.6829   9.8485  10.4808  14.4237  14.4581  14.8148  16.2563

          k = 0.4114-0.2493 0.2493     band energies (ev):

   -44.9713 -21.6474 -21.5885 -21.5877 -13.8285  -5.7037  -5.1401  -5.1041
     0.5521   0.7791   1.2079   6.5408   7.1056   7.5109   7.6188   8.2384
     8.4213   9.7957  10.0381  10.0867  14.2167  14.5797  14.6324  17.1658

          k = 0.4114-0.4154 0.2493     band energies (ev):

   -44.9706 -21.6454 -21.6176 -21.5867 -13.7871  -5.4286  -5.1372  -5.0602
     0.4463   0.5136   0.8414   6.3915   6.8287   7.3519   7.6129   8.1609
     8.2644  10.0039  10.1360  10.4736  14.7050  14.7394  14.9392  17.4613

     highest occupied, lowest unoccupied level (ev):    10.5800   12.8421

!    total energy              =    -264.80720082 Ry
     Harris-Foulkes estimate   =    -264.80720075 Ry
     estimated scf accuracy    <          3.3E-10 Ry

     The total energy is the sum of the following terms:

     one-electron contribution =     -70.43405815 Ry
     hartree contribution      =      58.78702597 Ry
     xc contribution           =     -42.75055211 Ry
     ewald contribution        =    -210.40964073 Ry
     scf correction            =       0.00002420 Ry

     iteration # 31     ecut=   100.00 Ry     beta=0.60
     Davidson diagonalization with overlap
     ethr =  8.19E-13,  avg # of iterations =  2.7

     total cpu time spent up to now is      126.7 secs

     total energy              =    -264.80720082 Ry
     Harris-Foulkes estimate   =    -264.80720082 Ry
     estimated scf accuracy    <          1.0E-11 Ry

     iteration # 32     ecut=   100.00 Ry     beta=0.60
     Davidson diagonalization with overlap
     ethr =  1.00E-13,  avg # of iterations =  4.2

     total cpu time spent up to now is      127.1 secs

     total energy              =    -264.80720082 Ry
     Harris-Foulkes estimate   =    -264.80720082 Ry
     estimated scf accuracy    <          9.3E-13 Ry

     iteration # 33     ecut=   100.00 Ry     beta=0.60
     Davidson diagonalization with overlap
     ethr =  1.00E-13,  avg # of iterations =  1.0

     total cpu time spent up to now is      127.4 secs

     total energy              =    -264.80720082 Ry
     Harris-Foulkes estimate   =    -264.80720082 Ry
     estimated scf accuracy    <          6.0E-14 Ry

     iteration # 34     ecut=   100.00 Ry     beta=0.60
     Davidson diagonalization with overlap
     ethr =  1.00E-13,  avg # of iterations =  1.0

     total cpu time spent up to now is      127.7 secs

     total energy              =    -264.80720082 Ry
     Harris-Foulkes estimate   =    -264.80720082 Ry
     estimated scf accuracy    <          1.0E-14 Ry

     iteration # 35     ecut=   100.00 Ry     beta=0.60
     Davidson diagonalization with overlap
     ethr =  1.00E-13,  avg # of iterations =  1.0

     total cpu time spent up to now is      128.0 secs

     End of self-consistent calculation

          k = 0.0823 0.0831 0.0831 (  6975 PWs)   bands (ev):

   -44.9736 -21.5962 -21.5621 -21.5618 -14.0327  -5.9884  -5.2953  -5.2586
     0.9223   0.9309   1.0755   8.1015   8.3043   8.3175   9.0232   9.0397
     9.4804   9.9617  10.3644  10.3740  12.8421  12.9727  13.0012  15.4689

          k = 0.0823 0.0831 0.2493 (  6965 PWs)   bands (ev):

   -44.9730 -21.5951 -21.5926 -21.5606 -13.9690  -6.0649  -5.2635  -5.1615
     0.9752   0.9950   1.2866   7.3757   8.0160   8.1222   8.5798   8.6194
     9.3250   9.3760  10.0099  10.1240  13.0277  13.6453  13.6703  15.4844

          k = 0.0823 0.0831 0.4154 (  6963 PWs)   bands (ev):

   -44.9723 -21.6233 -21.5934 -21.5593 -13.9034  -6.2264  -5.2377  -4.9454
     1.0313   1.1614   1.3850   6.6395   7.7781   7.8610   8.0471   8.3720
     9.1624   9.2801   9.5925   9.8627  13.0888  14.3775  14.4029  15.4701

          k = 0.0823 0.2493 0.2493 (  6961 PWs)   bands (ev):

   -44.9723 -21.5940 -21.5912 -21.5903 -13.9157  -5.9701  -5.2154  -5.1767
     0.8839   0.9936   1.3923   7.0395   7.5889   7.7862   8.1635   8.3838
     8.8260   9.6409   9.7687  10.2205  13.6158  13.7974  14.0054  15.9325

          k = 0.0823 0.2493 0.4154 (  6963 PWs)   bands (ev):

   -44.9717 -21.6211 -21.5924 -21.5891 -13.8610  -5.9806  -5.1847  -5.0497
     0.8875   1.0681   1.3140   6.5484   7.1492   7.4428   7.8641   8.2145
     8.9689   9.4297   9.6312  10.2126  13.7482  14.4324  14.5364  15.9864

          k = 0.0823 0.4154 0.4154 (  6975 PWs)   bands (ev):

   -44.9711 -21.6191 -21.6188 -21.5909 -13.8176  -5.7195  -5.1679  -5.1218
     0.8349   0.8884   1.2823   6.3685   6.6695   6.8137   7.8666   7.8953
     8.8418   9.6502   9.8118  10.5800  14.4356  14.4860  14.8489  16.0845

          k = 0.2469 0.2493 0.2493 (  6968 PWs)   bands (ev):

   -44.9718 -21.6206 -21.5900 -21.5890 -13.8725  -5.7967  -5.2041  -5.1608
     0.7182   0.7423   1.4586   6.8107   7.5034   7.5389   8.1029   8.2194
     8.2567   9.9275   9.9277  10.0432  14.0717  14.1174  14.1526  17.1295

          k = 0.2469 0.2493 0.4154 (  6979 PWs)   bands (ev):

   -44.9712 -21.6196 -21.6186 -21.5879 -13.8244  -5.7255  -5.1336  -5.0668
     0.5680   0.7438   1.2033   6.5198   7.1621   7.4806   7.6113   8.2014
     8.3931   9.7153  10.0426  10.1428  14.2186  14.6112  14.6604  17.0944

          k = 0.2469 0.4154 0.4154 (  6994 PWs)   bands (ev):

   -44.9705 -21.6181 -21.6173 -21.6169 -13.7834  -5.4568  -5.0805  -5.0615
     0.4466   0.4782   0.8390   6.3750   6.8171   7.3434   7.6300   8.1544
     8.2418   9.9612  10.0769  10.5739  14.7324  14.7504  14.9632  17.2815

          k = 0.4114 0.4154 0.4154 (  6964 PWs)   bands (ev):

   -44.9700 -21.6437 -21.6160 -21.6159 -13.7486  -5.1507  -5.0250  -4.9865
     0.1428   0.1704   0.3461   6.2534   6.8230   6.8438   8.0203   8.2872
     8.3037  10.4153  10.4589  10.5756  15.0630  15.0646  15.0901  17.7949

          k = 0.2469-0.0831 0.0831 (  6963 PWs)   bands (ev):

   -44.9731 -21.6240 -21.5609 -21.5606 -13.9732  -6.0591  -5.2364  -5.2099
     0.9778   1.0005   1.2867   7.3671   8.0187   8.1113   8.6010   8.6121
     9.3623   9.4289  10.0808  10.1178  12.9084  13.6881  13.7048  15.4706

          k = 0.4114-0.0831 0.0831 (  6978 PWs)   bands (ev):

   -44.9725 -21.6515 -21.5596 -21.5595 -13.9120  -6.2138  -5.2140  -5.0147
     1.0253   1.1602   1.4081   6.6349   7.7613   7.8657   8.0918   8.3973
     9.1453   9.3098   9.7756   9.9089  12.9685  14.3666  14.3870  15.4687

          k = 0.2469-0.2493 0.0831 (  6964 PWs)   bands (ev):

   -44.9724 -21.6222 -21.5911 -21.5595 -13.9196  -5.9622  -5.2573  -5.1633
     0.9017   0.9992   1.3961   7.0473   7.5162   7.8302   8.1746   8.3749
     8.9891   9.6297   9.7425  10.1651  13.6463  13.7927  13.9966  15.9805

          k = 0.4114-0.2493 0.0831 (  6972 PWs)   bands (ev):

   -44.9719 -21.6493 -21.5895 -21.5583 -13.8690  -5.9635  -5.1809  -5.1132
     0.8942   1.1002   1.3277   6.5583   7.0891   7.5102   7.8862   8.2153
     9.1135   9.4314   9.6663  10.1370  13.7405  14.4074  14.5005  16.0732

          k = 0.2469 0.4154 0.0831 (  6971 PWs)   bands (ev):

   -44.9718 -21.6215 -21.6201 -21.5582 -13.8646  -5.9791  -5.2124  -5.0490
     0.9107   1.0780   1.3277   6.5524   7.1304   7.4540   7.8573   8.2464
     9.0453   9.4262   9.6191  10.1355  13.7863  14.4124  14.5347  16.0746

          k = 0.4114-0.4154 0.0831 (  6985 PWs)   bands (ev):

   -44.9713 -21.6470 -21.6192 -21.5571 -13.8251  -5.6993  -5.2281  -5.1338
     0.8692   0.9268   1.2943   6.3893   6.6418   6.8589   7.8373   7.9407
     8.8799   9.6829   9.8485  10.4808  14.4237  14.4581  14.8148  16.2563

          k = 0.4114-0.2493 0.2493 (  6962 PWs)   bands (ev):

   -44.9713 -21.6473 -21.5884 -21.5877 -13.8285  -5.7037  -5.1402  -5.1041
     0.5521   0.7791   1.2078   6.5408   7.1056   7.5109   7.6188   8.2384
     8.4213   9.7957  10.0381  10.0867  14.2167  14.5797  14.6324  17.1658

          k = 0.4114-0.4154 0.2493 (  6977 PWs)   bands (ev):

   -44.9706 -21.6454 -21.6176 -21.5866 -13.7872  -5.4286  -5.1372  -5.0602
     0.4463   0.5136   0.8414   6.3915   6.8287   7.3519   7.6129   8.1609
     8.2644  10.0039  10.1360  10.4736  14.7050  14.7394  14.9392  17.4613

     highest occupied, lowest unoccupied level (ev):    10.5800   12.8421

!    total energy              =    -264.80720082 Ry
     Harris-Foulkes estimate   =    -264.80720082 Ry
     estimated scf accuracy    <          2.8E-15 Ry

     The total energy is the sum of the following terms:

     one-electron contribution =     -70.43403808 Ry
     hartree contribution      =      58.78702976 Ry
     xc contribution           =     -42.75055177 Ry
     ewald contribution        =    -210.40964073 Ry

     convergence has been achieved in  35 iterations

     Forces acting on atoms (cartesian axes, Ry/au):

     atom    1 type  3   force =     0.00006196    0.00000000    0.00000000
     atom    2 type  2   force =     0.00002917    0.00000000    0.00000000
     atom    3 type  1   force =     0.00067031    0.00000000    0.00000000
     atom    4 type  1   force =    -0.00038072    0.00000000    0.00000000
     atom    5 type  1   force =    -0.00038072    0.00000000    0.00000000

     Total force =     0.000862     Total SCF correction =     0.000000


     Computing stress (Cartesian axis) and pressure

          total   stress  (Ry/bohr**3)                   (kbar)     P=    0.71
   0.00000511   0.00000000   0.00000000          0.75      0.00      0.00
   0.00000000   0.00000472   0.00000000          0.00      0.69      0.00
   0.00000000   0.00000000   0.00000472          0.00      0.00      0.69


     Writing output data file bto.save
 
     init_run     :      0.83s CPU      1.08s WALL (       2 calls)
     electrons    :    108.49s CPU    111.26s WALL (      16 calls)
     update_pot   :      4.87s CPU      5.50s WALL (      14 calls)
     forces       :      2.78s CPU      2.80s WALL (      16 calls)
     stress       :      5.73s CPU      5.76s WALL (      16 calls)

     Called by init_run:
     wfcinit      :      0.18s CPU      0.20s WALL (       2 calls)
     potinit      :      0.18s CPU      0.29s WALL (       2 calls)

     Called by electrons:
     c_bands      :     85.15s CPU     86.86s WALL (     249 calls)
     sum_band     :     16.99s CPU     17.32s WALL (     249 calls)
     v_of_rho     :      0.34s CPU      0.35s WALL (     265 calls)
     newd         :      5.51s CPU      5.55s WALL (     265 calls)
     mix_rho      :      0.35s CPU      0.36s WALL (     249 calls)

     Called by c_bands:
     init_us_2    :      1.14s CPU      1.17s WALL (    9576 calls)
     cegterg      :     79.92s CPU     81.45s WALL (    4482 calls)

     Called by sum_band:
     sum_band:bec :      0.02s CPU      0.05s WALL (    4482 calls)
     addusdens    :      6.32s CPU      6.34s WALL (     249 calls)

     Called by *egterg:
     h_psi        :     47.49s CPU     48.78s WALL (   18639 calls)
     s_psi        :      1.56s CPU      1.49s WALL (   18639 calls)
     g_psi        :      0.23s CPU      0.28s WALL (   14121 calls)
     cdiaghg      :     19.00s CPU     19.00s WALL (   18351 calls)

     Called by h_psi:
     h_psi:pot    :     47.40s CPU     48.52s WALL (   18639 calls)
     h_psi:calbec :      2.91s CPU      2.86s WALL (   18639 calls)
     vloc_psi     :     42.91s CPU     43.99s WALL (   18639 calls)
     add_vuspsi   :      1.56s CPU      1.62s WALL (   18639 calls)

     General routines
     calbec       :      4.04s CPU      3.95s WALL (   24561 calls)
     fft          :      1.02s CPU      1.06s WALL (    2415 calls)
     ffts         :      0.06s CPU      0.06s WALL (     514 calls)
     fftw         :     46.28s CPU     45.90s WALL (  703588 calls)
     interpolate  :      0.27s CPU      0.28s WALL (     514 calls)
     davcio       :      0.00s CPU      0.05s WALL (      36 calls)
 
     Parallel routines
     fft_scatter  :     26.70s CPU     24.73s WALL (  706517 calls)
 
     PWSCF        :  2m 4.08s CPU     2m 8.60s WALL

 
   This run was terminated on:  14: 8:55   6Jan2018            

=------------------------------------------------------------------------------=
   JOB DONE.
=------------------------------------------------------------------------------=
