
     Program PWSCF v.6.1 (svn rev. 13369) starts on  6Jan2018 at 14: 4:18 

     This program is part of the open-source Quantum ESPRESSO suite
     for quantum simulation of materials; please cite
         "P. Giannozzi et al., J. Phys.:Condens. Matter 21 395502 (2009);
          URL http://www.quantum-espresso.org", 
     in publications or presentations arising from this work. More details at
     http://www.quantum-espresso.org/quote

     Parallel version (MPI), running on    28 processors
     R & G space division:  proc/nbgrp/npool/nimage =      28
     Waiting for input...
     Reading input from standard input

     Current dimensions of program PWSCF are:
     Max number of different atomic species (ntypx) = 10
     Max number of k-points (npk) =  40000
     Max angular momentum in pseudopotentials (lmaxx) =  3
               file O.pbe-rrkjus.UPF: wavefunction(s)  2S renormalized

     Subspace diagonalization in iterative solution of the eigenvalue problem:
     a serial algorithm will be used

 
     Parallelization info
     --------------------
     sticks:   dense  smooth     PW     G-vecs:    dense   smooth      PW
     Min         125      62     17                 5539     1956     291
     Max         126      63     18                 5541     1961     296
     Sum        3505    1749    489               155139    54795    8217
 

     Title: 
     cubic BaTiO3 at 7.40 lattice parameter. xc=PBE                             


     bravais-lattice index     =            1
     lattice parameter (alat)  =       7.4000  a.u.
     unit-cell volume          =     405.2240 (a.u.)^3
     number of atoms/cell      =            5
     number of atomic types    =            3
     number of electrons       =        40.00
     number of Kohn-Sham states=           24
     kinetic-energy cutoff     =     100.0000  Ry
     charge density cutoff     =     800.0000  Ry
     convergence threshold     =      1.0E-12
     mixing beta               =       0.6000
     number of iterations used =            8  plain     mixing
     Exchange-correlation      =  SLA  PW   PBE  PBE ( 1  4  3  4 0 0)
     nstep                     =           50


     celldm(1)=   7.400000  celldm(2)=   0.000000  celldm(3)=   0.000000
     celldm(4)=   0.000000  celldm(5)=   0.000000  celldm(6)=   0.000000

     crystal axes: (cart. coord. in units of alat)
               a(1) = (   1.000000   0.000000   0.000000 )  
               a(2) = (   0.000000   1.000000   0.000000 )  
               a(3) = (   0.000000   0.000000   1.000000 )  

     reciprocal axes: (cart. coord. in units 2 pi/alat)
               b(1) = (  1.000000  0.000000  0.000000 )  
               b(2) = (  0.000000  1.000000  0.000000 )  
               b(3) = (  0.000000  0.000000  1.000000 )  


     PseudoPot. # 1 for O  read from file:
     ../../PSP_DIR/O.pbe-rrkjus.UPF
     MD5 check sum: 390ba29e75625707450f3bd3f0eb6be9
     Pseudo is Ultrasoft, Zval =  6.0
     Generated by new atomic code, or converted to UPF format
     Using radial grid of 1269 points,  4 beta functions with: 
                l(1) =   0
                l(2) =   0
                l(3) =   1
                l(4) =   1
     Q(r) pseudized with 0 coefficients 


     PseudoPot. # 2 for Ti read from file:
     ../../PSP_DIR/Ti.pbe-sp-van_ak.UPF
     MD5 check sum: 8e4df49b7f0d34bbd5052bf3f5ea0213
     Pseudo is Ultrasoft, Zval = 12.0
     Generated by new atomic code, or converted to UPF format
     Using radial grid of  851 points,  6 beta functions with: 
                l(1) =   0
                l(2) =   0
                l(3) =   1
                l(4) =   1
                l(5) =   2
                l(6) =   2
     Q(r) pseudized with  8 coefficients,  rinner =    1.000   1.000   1.000
                                                       1.000   1.000

     PseudoPot. # 3 for Ba read from file:
     ../../PSP_DIR/Ba.pbe-nsp-van.UPF
     MD5 check sum: a011de417d3466d8e94df216395bc359
     Pseudo is Ultrasoft + core correction, Zval = 10.0
     Generated by new atomic code, or converted to UPF format
     Using radial grid of  907 points,  6 beta functions with: 
                l(1) =   0
                l(2) =   0
                l(3) =   1
                l(4) =   1
                l(5) =   2
                l(6) =   2
     Q(r) pseudized with  6 coefficients,  rinner =    1.200   1.200   1.200
                                                       1.200   1.200

     atomic species   valence    mass     pseudopotential
        O              6.00    15.99000     O ( 1.00)
        Ti            12.00    47.88000     Ti( 1.00)
        Ba            10.00   137.33000     Ba( 1.00)

      8 Sym. Ops. (no inversion) found



   Cartesian axes

     site n.     atom                  positions (alat units)
         1           Ba  tau(   1) = (   0.0000000   0.0000000   0.0000000  )
         2           Ti  tau(   2) = (   0.4900000   0.5000000   0.5000000  )
         3           O   tau(   3) = (   0.0000000   0.5000000   0.5000000  )
         4           O   tau(   4) = (   0.5000000   0.0000000   0.5000000  )
         5           O   tau(   5) = (   0.5000000   0.5000000   0.0000000  )

     number of k points=    18
                       cart. coord. in units 2pi/alat
        k(    1) = (   0.0833333   0.0833333   0.0833333), wk =   0.0740741
        k(    2) = (   0.0833333   0.0833333   0.2500000), wk =   0.1481481
        k(    3) = (   0.0833333   0.0833333   0.4166667), wk =   0.1481481
        k(    4) = (   0.0833333   0.2500000   0.2500000), wk =   0.0740741
        k(    5) = (   0.0833333   0.2500000   0.4166667), wk =   0.1481481
        k(    6) = (   0.0833333   0.4166667   0.4166667), wk =   0.0740741
        k(    7) = (   0.2500000   0.2500000   0.2500000), wk =   0.0740741
        k(    8) = (   0.2500000   0.2500000   0.4166667), wk =   0.1481481
        k(    9) = (   0.2500000   0.4166667   0.4166667), wk =   0.0740741
        k(   10) = (   0.4166667   0.4166667   0.4166667), wk =   0.0740741
        k(   11) = (   0.2500000  -0.0833333   0.0833333), wk =   0.0740741
        k(   12) = (   0.4166667  -0.0833333   0.0833333), wk =   0.0740741
        k(   13) = (   0.2500000  -0.2500000   0.0833333), wk =   0.1481481
        k(   14) = (   0.4166667  -0.2500000   0.0833333), wk =   0.1481481
        k(   15) = (   0.2500000   0.4166667   0.0833333), wk =   0.1481481
        k(   16) = (   0.4166667  -0.4166667   0.0833333), wk =   0.1481481
        k(   17) = (   0.4166667  -0.2500000   0.2500000), wk =   0.0740741
        k(   18) = (   0.4166667  -0.4166667   0.2500000), wk =   0.1481481

     Dense  grid:   155139 G-vectors     FFT dimensions: (  72,  72,  72)

     Smooth grid:    54795 G-vectors     FFT dimensions: (  48,  48,  48)

     Estimated max dynamical RAM per process >       6.37MB

     Estimated total allocated dynamical RAM >     178.31MB

     Initial potential from superposition of free atoms

     starting charge   38.98495, renormalised to   40.00000
     Starting wfc are   35 randomized atomic wfcs

     total cpu time spent up to now is        1.3 secs

     per-process dynamical memory:    58.4 Mb

     Self-consistent Calculation

     iteration #  1     ecut=   100.00 Ry     beta=0.60
     Davidson diagonalization with overlap
     ethr =  1.00E-02,  avg # of iterations =  2.6

     total cpu time spent up to now is        1.8 secs

     total energy              =    -302.90937152 Ry
     Harris-Foulkes estimate   =    -303.47691219 Ry
     estimated scf accuracy    <       0.79306793 Ry

     iteration #  2     ecut=   100.00 Ry     beta=0.60
     Davidson diagonalization with overlap
     ethr =  1.98E-03,  avg # of iterations =  4.0

     total cpu time spent up to now is        2.3 secs

     total energy              =    -302.37948972 Ry
     Harris-Foulkes estimate   =    -303.82932341 Ry
     estimated scf accuracy    <       5.43912291 Ry

     iteration #  3     ecut=   100.00 Ry     beta=0.60
     Davidson diagonalization with overlap
     ethr =  1.98E-03,  avg # of iterations =  3.3

     total cpu time spent up to now is        2.8 secs

     total energy              =    -303.31153094 Ry
     Harris-Foulkes estimate   =    -303.35556289 Ry
     estimated scf accuracy    <       0.16492562 Ry

     iteration #  4     ecut=   100.00 Ry     beta=0.60
     Davidson diagonalization with overlap
     ethr =  4.12E-04,  avg # of iterations =  1.3

     total cpu time spent up to now is        3.2 secs

     total energy              =    -303.29889708 Ry
     Harris-Foulkes estimate   =    -303.31989641 Ry
     estimated scf accuracy    <       0.06052202 Ry

     iteration #  5     ecut=   100.00 Ry     beta=0.60
     Davidson diagonalization with overlap
     ethr =  1.51E-04,  avg # of iterations =  3.1

     total cpu time spent up to now is        3.6 secs

     total energy              =    -303.31159378 Ry
     Harris-Foulkes estimate   =    -303.31157059 Ry
     estimated scf accuracy    <       0.00043170 Ry

     iteration #  6     ecut=   100.00 Ry     beta=0.60
     Davidson diagonalization with overlap
     ethr =  1.08E-06,  avg # of iterations =  4.4

     total cpu time spent up to now is        4.2 secs

     total energy              =    -303.31162512 Ry
     Harris-Foulkes estimate   =    -303.31182002 Ry
     estimated scf accuracy    <       0.00044949 Ry

     iteration #  7     ecut=   100.00 Ry     beta=0.60
     Davidson diagonalization with overlap
     ethr =  1.08E-06,  avg # of iterations =  2.7

     total cpu time spent up to now is        4.6 secs

     total energy              =    -303.31170390 Ry
     Harris-Foulkes estimate   =    -303.31171760 Ry
     estimated scf accuracy    <       0.00004758 Ry

     iteration #  8     ecut=   100.00 Ry     beta=0.60
     Davidson diagonalization with overlap
     ethr =  1.19E-07,  avg # of iterations =  3.0

     total cpu time spent up to now is        5.0 secs

     total energy              =    -303.31170871 Ry
     Harris-Foulkes estimate   =    -303.31171631 Ry
     estimated scf accuracy    <       0.00002066 Ry

     iteration #  9     ecut=   100.00 Ry     beta=0.60
     Davidson diagonalization with overlap
     ethr =  5.17E-08,  avg # of iterations =  2.3

     total cpu time spent up to now is        5.4 secs

     total energy              =    -303.31171060 Ry
     Harris-Foulkes estimate   =    -303.31171112 Ry
     estimated scf accuracy    <       0.00000100 Ry

     iteration # 10     ecut=   100.00 Ry     beta=0.60
     Davidson diagonalization with overlap
     ethr =  2.51E-09,  avg # of iterations =  3.6

     total cpu time spent up to now is        5.9 secs

          k = 0.0833 0.0833 0.0833     band energies (ev):

   -45.0967 -21.3780 -21.3733 -21.3730 -13.1543  -5.7379  -5.0957  -5.0856
     1.6083   1.6097   1.7599   8.6198   8.8273   8.8285   9.5106   9.5165
     9.8976  10.5921  10.9192  10.9254  13.4003  13.4519  13.4633  15.9549

          k = 0.0833 0.0833 0.2500     band energies (ev):

   -45.0961 -21.4042 -21.3767 -21.3718 -13.0831  -5.8234  -5.0773  -4.9703
     1.6657   1.6774   1.9728   7.8782   8.5482   8.6372   9.1139   9.1259
     9.8176   9.9249  10.5917  10.6478  13.4832  14.1991  14.2116  15.9669

          k = 0.0833 0.0833 0.4167     band energies (ev):

   -45.0954 -21.4350 -21.3754 -21.3705 -13.0095  -5.9921  -5.0613  -4.7439
     1.7234   1.8526   2.0703   7.1175   8.3164   8.3907   8.5801   8.9438
     9.6509   9.8367  10.2324  10.3741  13.5264  14.9233  14.9368  15.9619

          k = 0.0833 0.2500 0.2500     band energies (ev):

   -45.0954 -21.4032 -21.4019 -21.3754 -13.0240  -5.7316  -5.0316  -4.9850
     1.5709   1.6859   2.0876   7.5598   8.0783   8.3135   8.7101   8.9055
     9.4792  10.0991  10.2523  10.7137  14.1765  14.3184  14.5683  16.4864

          k = 0.0833 0.2500 0.4167     band energies (ev):

   -45.0948 -21.4329 -21.4008 -21.3742 -12.9631  -5.7505  -5.0044  -4.8520
     1.5792   1.7593   2.0186   7.0390   7.6935   7.9384   8.4177   8.7798
     9.5896   9.9415  10.1167  10.6844  14.2842  14.9648  15.0989  16.5820

          k = 0.0833 0.4167 0.4167     band energies (ev):

   -45.0942 -21.4310 -21.4307 -21.3730 -12.9155  -5.5011  -4.9729  -4.9302
     1.5268   1.5813   1.9961   6.8786   7.2470   7.2628   8.4418   8.4672
     9.3542  10.1891  10.3375  11.0312  14.9770  15.0149  15.4165  16.7717

          k = 0.2500 0.2500 0.2500     band energies (ev):

   -45.0948 -21.4060 -21.4013 -21.4004 -12.9727  -5.5581  -4.9906  -4.9812
     1.4053   1.4069   2.1534   7.3402   8.0213   8.0307   8.5966   8.7934
     8.8001  10.4111  10.4721  10.4778  14.6611  14.6823  14.6870  17.7327

          k = 0.2500 0.2500 0.4167     band energies (ev):

   -45.0942 -21.4311 -21.4044 -21.3994 -12.9200  -5.4912  -4.9363  -4.8709
     1.2420   1.4226   1.8915   7.0137   7.6954   7.9960   8.0831   8.7991
     8.9640  10.2283  10.5541  10.5910  14.7766  15.1719  15.2213  17.7036

          k = 0.2500 0.4167 0.4167     band energies (ev):

   -45.0936 -21.4293 -21.4291 -21.4029 -12.8759  -5.2247  -4.8876  -4.8651
     1.1216   1.1620   1.5162   6.8785   7.2659   7.9216   8.1098   8.7413
     8.8346  10.4786  10.5816  10.9932  15.2917  15.3060  15.5276  18.0493

          k = 0.4167 0.4167 0.4167     band energies (ev):

   -45.0929 -21.4326 -21.4277 -21.4275 -12.8354  -4.9212  -4.8053  -4.7966
     0.8219   0.8238   1.0046   6.7376   7.2647   7.2721   8.6190   8.8933
     8.8973  10.9130  10.9183  10.9941  15.6468  15.6491  15.6566  18.7058

          k = 0.2500-0.0833 0.0833     band energies (ev):

   -45.0961 -21.4092 -21.3719 -21.3717 -13.0832  -5.8181  -5.0697  -4.9829
     1.6645   1.6775   1.9738   7.8731   8.5447   8.6327   9.1123   9.1234
     9.8143   9.9390  10.6213  10.6255  13.4627  14.2125  14.2222  15.9568

          k = 0.4167-0.0833 0.0833     band energies (ev):

   -45.0954 -21.4400 -21.3706 -21.3704 -13.0096  -5.9855  -5.0536  -4.7572
     1.7218   1.8515   2.0728   7.1041   8.3049   8.3863   8.5878   8.9468
     9.6405   9.8399  10.2674  10.3691  13.5060  14.9318  14.9453  15.9531

          k = 0.2500-0.2500 0.0833     band energies (ev):

   -45.0954 -21.4076 -21.4024 -21.3705 -13.0240  -5.7256  -5.0391  -4.9829
     1.5719   1.6848   2.0879   7.5583   8.0644   8.3172   8.7040   8.8969
     9.5060  10.1045  10.2425  10.7109  14.1820  14.3198  14.5732  16.4809

          k = 0.4167-0.2500 0.0833     band energies (ev):

   -45.0948 -21.4379 -21.4008 -21.3693 -12.9632  -5.7419  -4.9997  -4.8641
     1.5785   1.7610   2.0178   7.0288   7.6686   7.9563   8.4104   8.7717
     9.6124   9.9425  10.1273  10.6762  14.2813  14.9713  15.1039  16.5795

          k = 0.2500 0.4167 0.0833     band energies (ev):

   -45.0948 -21.4329 -21.4057 -21.3693 -12.9631  -5.7462  -5.0084  -4.8515
     1.5809   1.7586   2.0180   7.0394   7.6850   7.9368   8.4047   8.7805
     9.6030   9.9425  10.1234  10.6780  14.2949  14.9612  15.1028  16.5833

          k = 0.4167-0.4167 0.0833     band energies (ev):

   -45.0942 -21.4358 -21.4308 -21.3681 -12.9155  -5.4894  -4.9801  -4.9329
     1.5279   1.5826   1.9944   6.8758   7.2168   7.2793   8.4188   8.4688
     9.3594  10.2062  10.3559  11.0213  14.9790  15.0164  15.4202  16.7796

          k = 0.4167-0.2500 0.2500     band energies (ev):

   -45.0942 -21.4361 -21.3998 -21.3990 -12.9200  -5.4850  -4.9291  -4.8835
     1.2404   1.4250   1.8906   7.0050   7.6807   8.0024   8.0859   8.8015
     8.9706  10.2378  10.5493  10.5895  14.7720  15.1744  15.2245  17.6996

          k = 0.4167-0.4167 0.2500     band energies (ev):

   -45.0936 -21.4342 -21.4292 -21.3980 -12.8759  -5.2152  -4.8954  -4.8659
     1.1215   1.1633   1.5150   6.8755   7.2599   7.9166   8.1097   8.7392
     8.8353  10.4893  10.5955  10.9823  15.2898  15.3050  15.5310  18.0590

     highest occupied, lowest unoccupied level (ev):    11.0312   13.4003

!    total energy              =    -303.31171114 Ry
     Harris-Foulkes estimate   =    -303.31171120 Ry
     estimated scf accuracy    <       0.00000013 Ry

     The total energy is the sum of the following terms:

     one-electron contribution =     -65.00368514 Ry
     hartree contribution      =      57.94107226 Ry
     xc contribution           =     -84.35531996 Ry
     ewald contribution        =    -211.89562325 Ry
     scf correction            =       0.00184494 Ry

     iteration # 11     ecut=   100.00 Ry     beta=0.60
     Davidson diagonalization with overlap
     ethr =  3.18E-10,  avg # of iterations =  2.9

     total cpu time spent up to now is        6.3 secs

     total energy              =    -303.31171117 Ry
     Harris-Foulkes estimate   =    -303.31171117 Ry
     estimated scf accuracy    <          3.1E-09 Ry

     iteration # 12     ecut=   100.00 Ry     beta=0.60
     Davidson diagonalization with overlap
     ethr =  7.76E-12,  avg # of iterations =  3.1

     total cpu time spent up to now is        6.8 secs

     total energy              =    -303.31171117 Ry
     Harris-Foulkes estimate   =    -303.31171117 Ry
     estimated scf accuracy    <          3.1E-10 Ry

     iteration # 13     ecut=   100.00 Ry     beta=0.60
     Davidson diagonalization with overlap
     ethr =  7.64E-13,  avg # of iterations =  2.5

     total cpu time spent up to now is        7.2 secs

     total energy              =    -303.31171117 Ry
     Harris-Foulkes estimate   =    -303.31171117 Ry
     estimated scf accuracy    <          4.4E-11 Ry

     iteration # 14     ecut=   100.00 Ry     beta=0.60
     Davidson diagonalization with overlap
     ethr =  1.10E-13,  avg # of iterations =  3.4

     total cpu time spent up to now is        7.7 secs

     total energy              =    -303.31171117 Ry
     Harris-Foulkes estimate   =    -303.31171117 Ry
     estimated scf accuracy    <          1.3E-12 Ry

     iteration # 15     ecut=   100.00 Ry     beta=0.60
     Davidson diagonalization with overlap
     ethr =  1.00E-13,  avg # of iterations =  1.0

     total cpu time spent up to now is        8.0 secs

     End of self-consistent calculation

          k = 0.0833 0.0833 0.0833 (  6850 PWs)   bands (ev):

   -45.0950 -21.3764 -21.3717 -21.3714 -13.1548  -5.7377  -5.0954  -5.0854
     1.6079   1.6093   1.7595   8.6200   8.8276   8.8288   9.5108   9.5167
     9.8978  10.5923  10.9194  10.9256  13.4015  13.4530  13.4644  15.9563

          k = 0.0833 0.0833 0.2500 (  6839 PWs)   bands (ev):

   -45.0944 -21.4026 -21.3751 -21.3702 -13.0837  -5.8232  -5.0771  -4.9701
     1.6653   1.6770   1.9724   7.8785   8.5485   8.6375   9.1141   9.1261
     9.8177   9.9251  10.5919  10.6480  13.4843  14.2002  14.2128  15.9683

          k = 0.0833 0.0833 0.4167 (  6839 PWs)   bands (ev):

   -45.0937 -21.4334 -21.3738 -21.3688 -13.0100  -5.9919  -5.0610  -4.7437
     1.7230   1.8522   2.0699   7.1179   8.3166   8.3909   8.5804   8.9440
     9.6511   9.8369  10.2326  10.3743  13.5275  14.9244  14.9379  15.9632

          k = 0.0833 0.2500 0.2500 (  6847 PWs)   bands (ev):

   -45.0937 -21.4016 -21.4003 -21.3738 -13.0245  -5.7314  -5.0314  -4.9848
     1.5705   1.6855   2.0872   7.5601   8.0787   8.3138   8.7103   8.9058
     9.4794  10.0993  10.2526  10.7139  14.1776  14.3195  14.5694  16.4877

          k = 0.0833 0.2500 0.4167 (  6833 PWs)   bands (ev):

   -45.0931 -21.4314 -21.3992 -21.3726 -12.9636  -5.7503  -5.0042  -4.8518
     1.5788   1.7589   2.0181   7.0394   7.6938   7.9388   8.4179   8.7801
     9.5899   9.9417  10.1169  10.6846  14.2853  14.9660  15.1001  16.5833

          k = 0.0833 0.4167 0.4167 (  6854 PWs)   bands (ev):

   -45.0925 -21.4294 -21.4291 -21.3714 -12.9160  -5.5009  -4.9727  -4.9299
     1.5264   1.5809   1.9956   6.8790   7.2472   7.2633   8.4421   8.4675
     9.3545  10.1893  10.3377  11.0313  14.9782  15.0161  15.4177  16.7730

          k = 0.2500 0.2500 0.2500 (  6881 PWs)   bands (ev):

   -45.0931 -21.4045 -21.3997 -21.3989 -12.9732  -5.5579  -4.9904  -4.9810
     1.4049   1.4066   2.1530   7.3404   8.0218   8.0311   8.5969   8.7936
     8.8003  10.4112  10.4723  10.4780  14.6622  14.6835  14.6882  17.7338

          k = 0.2500 0.2500 0.4167 (  6839 PWs)   bands (ev):

   -45.0925 -21.4295 -21.4028 -21.3978 -12.9205  -5.4910  -4.9360  -4.8707
     1.2416   1.4222   1.8910   7.0141   7.6957   7.9964   8.0834   8.7993
     8.9643  10.2285  10.5543  10.5912  14.7778  15.1730  15.2225  17.7048

          k = 0.2500 0.4167 0.4167 (  6851 PWs)   bands (ev):

   -45.0919 -21.4278 -21.4275 -21.4014 -12.8764  -5.2244  -4.8874  -4.8649
     1.1213   1.1616   1.5158   6.8788   7.2664   7.9219   8.1101   8.7415
     8.8348  10.4787  10.5818  10.9933  15.2929  15.3072  15.5288  18.0504

          k = 0.4167 0.4167 0.4167 (  6854 PWs)   bands (ev):

   -45.0912 -21.4310 -21.4261 -21.4259 -12.8360  -4.9209  -4.8051  -4.7964
     0.8215   0.8235   1.0042   6.7379   7.2652   7.2727   8.6192   8.8935
     8.8975  10.9132  10.9185  10.9943  15.6480  15.6503  15.6578  18.7058

          k = 0.2500-0.0833 0.0833 (  6839 PWs)   bands (ev):

   -45.0944 -21.4076 -21.3703 -21.3701 -13.0837  -5.8179  -5.0694  -4.9826
     1.6641   1.6771   1.9734   7.8735   8.5450   8.6329   9.1126   9.1236
     9.8145   9.9392  10.6215  10.6258  13.4639  14.2136  14.2233  15.9581

          k = 0.4167-0.0833 0.0833 (  6839 PWs)   bands (ev):

   -45.0937 -21.4384 -21.3689 -21.3688 -13.0101  -5.9853  -5.0534  -4.7569
     1.7214   1.8511   2.0724   7.1045   8.3051   8.3866   8.5880   8.9470
     9.6407   9.8401  10.2677  10.3693  13.5071  14.9330  14.9465  15.9545

          k = 0.2500-0.2500 0.0833 (  6847 PWs)   bands (ev):

   -45.0937 -21.4060 -21.4008 -21.3689 -13.0246  -5.7254  -5.0389  -4.9826
     1.5715   1.6844   2.0874   7.5586   8.0649   8.3175   8.7042   8.8972
     9.5062  10.1047  10.2428  10.7111  14.1831  14.3210  14.5743  16.4822

          k = 0.4167-0.2500 0.0833 (  6833 PWs)   bands (ev):

   -45.0931 -21.4364 -21.3992 -21.3677 -12.9637  -5.7417  -4.9995  -4.8638
     1.5781   1.7606   2.0174   7.0292   7.6689   7.9566   8.4107   8.7719
     9.6127   9.9427  10.1275  10.6764  14.2824  14.9725  15.1050  16.5808

          k = 0.2500 0.4167 0.0833 (  6833 PWs)   bands (ev):

   -45.0931 -21.4314 -21.4042 -21.3677 -12.9636  -5.7460  -5.0082  -4.8513
     1.5805   1.7582   2.0176   7.0398   7.6853   7.9372   8.4050   8.7807
     9.6033   9.9427  10.1236  10.6782  14.2960  14.9624  15.1039  16.5846

          k = 0.4167-0.4167 0.0833 (  6854 PWs)   bands (ev):

   -45.0925 -21.4343 -21.4292 -21.3665 -12.9161  -5.4892  -4.9798  -4.9327
     1.5275   1.5822   1.9939   6.8762   7.2172   7.2797   8.4191   8.4691
     9.3597  10.2063  10.3560  11.0215  14.9802  15.0176  15.4214  16.7808

          k = 0.4167-0.2500 0.2500 (  6839 PWs)   bands (ev):

   -45.0925 -21.4345 -21.3982 -21.3974 -12.9205  -5.4848  -4.9288  -4.8832
     1.2401   1.4247   1.8902   7.0054   7.6810   8.0029   8.0862   8.8017
     8.9708  10.2380  10.5495  10.5897  14.7731  15.1755  15.2257  17.7008

          k = 0.4167-0.4167 0.2500 (  6851 PWs)   bands (ev):

   -45.0919 -21.4326 -21.4276 -21.3964 -12.8764  -5.2150  -4.8951  -4.8656
     1.1211   1.1630   1.5147   6.8759   7.2604   7.9169   8.1101   8.7394
     8.8355  10.4894  10.5956  10.9825  15.2910  15.3062  15.5322  18.0601

     highest occupied, lowest unoccupied level (ev):    11.0313   13.4015

!    total energy              =    -303.31171117 Ry
     Harris-Foulkes estimate   =    -303.31171117 Ry
     estimated scf accuracy    <          8.2E-14 Ry

     The total energy is the sum of the following terms:

     one-electron contribution =     -65.00169750 Ry
     hartree contribution      =      57.94092042 Ry
     xc contribution           =     -84.35531085 Ry
     ewald contribution        =    -211.89562325 Ry

     convergence has been achieved in  15 iterations

     Forces acting on atoms (cartesian axes, Ry/au):

     atom    1 type  3   force =    -0.00574505    0.00000000    0.00000000
     atom    2 type  2   force =     0.00385115    0.00000000    0.00000000
     atom    3 type  1   force =     0.00260488    0.00000000    0.00000000
     atom    4 type  1   force =    -0.00035549    0.00000000    0.00000000
     atom    5 type  1   force =    -0.00035549    0.00000000    0.00000000

     Total force =     0.007408     Total SCF correction =     0.000000


     Computing stress (Cartesian axis) and pressure

          total   stress  (Ry/bohr**3)                   (kbar)     P=   91.16
   0.00063018   0.00000000   0.00000000         92.70      0.00      0.00
   0.00000000   0.00061446   0.00000000          0.00     90.39      0.00
   0.00000000   0.00000000   0.00061446          0.00      0.00     90.39


     BFGS Geometry Optimization

     number of scf cycles    =   1
     number of bfgs steps    =   0

     enthalpy new            =    -303.3117111732 Ry

     new trust radius        =       0.0634279572 bohr
     new conv_thr            =            1.0E-12 Ry

     new unit-cell volume =    424.35098 a.u.^3 (    62.88233 Ang^3 )
     density =      6.15760 g/cm^3

CELL_PARAMETERS (alat=  7.40000000)
   1.015754447   0.000000000   0.000000000
   0.000000000   1.015361423   0.000000000
   0.000000000   0.000000000   1.015361423

ATOMIC_POSITIONS (crystal)
Ba      -0.000776358   0.000000000   0.000000000
Ti       0.490520425   0.500000000   0.500000000
O        0.000352011   0.500000000   0.500000000
O        0.499951961   0.000000000   0.500000000
O        0.499951961   0.500000000   0.000000000



     Writing output data file bto.save
     NEW-OLD atomic charge density approx. for the potential
     extrapolated charge   41.75719, renormalised to   40.00000

     total cpu time spent up to now is        9.6 secs

     per-process dynamical memory:    71.3 Mb

     Self-consistent Calculation

     iteration #  1     ecut=   100.00 Ry     beta=0.60
     Davidson diagonalization with overlap
     ethr =  1.00E-06,  avg # of iterations = 14.1

     total cpu time spent up to now is       10.8 secs

     total energy              =    -302.99254960 Ry
     Harris-Foulkes estimate   =    -300.73683109 Ry
     estimated scf accuracy    <       0.23763289 Ry

     iteration #  2     ecut=   100.00 Ry     beta=0.60
     Davidson diagonalization with overlap
     ethr =  5.94E-04,  avg # of iterations =  5.0

     total cpu time spent up to now is       11.5 secs

     total energy              =    -303.17933438 Ry
     Harris-Foulkes estimate   =    -303.55329662 Ry
     estimated scf accuracy    <       1.28653206 Ry

     iteration #  3     ecut=   100.00 Ry     beta=0.60
     Davidson diagonalization with overlap
     ethr =  5.94E-04,  avg # of iterations =  3.4

     total cpu time spent up to now is       12.0 secs

     total energy              =    -303.32254295 Ry
     Harris-Foulkes estimate   =    -303.38083452 Ry
     estimated scf accuracy    <       0.23296549 Ry

     iteration #  4     ecut=   100.00 Ry     beta=0.60
     Davidson diagonalization with overlap
     ethr =  5.82E-04,  avg # of iterations =  1.0

     total cpu time spent up to now is       12.4 secs

     total energy              =    -303.32534911 Ry
     Harris-Foulkes estimate   =    -303.33664867 Ry
     estimated scf accuracy    <       0.06350475 Ry

     iteration #  5     ecut=   100.00 Ry     beta=0.60
     Davidson diagonalization with overlap
     ethr =  1.59E-04,  avg # of iterations =  2.9

     total cpu time spent up to now is       12.8 secs

     total energy              =    -303.32521066 Ry
     Harris-Foulkes estimate   =    -303.32899207 Ry
     estimated scf accuracy    <       0.03377972 Ry

     iteration #  6     ecut=   100.00 Ry     beta=0.60
     Davidson diagonalization with overlap
     ethr =  8.44E-05,  avg # of iterations =  1.2

     total cpu time spent up to now is       13.1 secs

     total energy              =    -303.32341864 Ry
     Harris-Foulkes estimate   =    -303.32558695 Ry
     estimated scf accuracy    <       0.02401481 Ry

     iteration #  7     ecut=   100.00 Ry     beta=0.60
     Davidson diagonalization with overlap
     ethr =  6.00E-05,  avg # of iterations =  1.0

     total cpu time spent up to now is       13.5 secs

     total energy              =    -303.31847512 Ry
     Harris-Foulkes estimate   =    -303.32362286 Ry
     estimated scf accuracy    <       0.01749291 Ry

     iteration #  8     ecut=   100.00 Ry     beta=0.60
     Davidson diagonalization with overlap
     ethr =  4.37E-05,  avg # of iterations =  1.9

     total cpu time spent up to now is       13.8 secs

     total energy              =    -303.31584760 Ry
     Harris-Foulkes estimate   =    -303.31927701 Ry
     estimated scf accuracy    <       0.00529105 Ry

     iteration #  9     ecut=   100.00 Ry     beta=0.60
     Davidson diagonalization with overlap
     ethr =  1.32E-05,  avg # of iterations =  3.4

     total cpu time spent up to now is       14.3 secs

     total energy              =    -303.31763001 Ry
     Harris-Foulkes estimate   =    -303.31810325 Ry
     estimated scf accuracy    <       0.00066324 Ry

     iteration # 10     ecut=   100.00 Ry     beta=0.60
     Davidson diagonalization with overlap
     ethr =  1.66E-06,  avg # of iterations =  3.3

     total cpu time spent up to now is       14.9 secs

          k = 0.0820 0.0821 0.0821     band energies (ev):

   -46.0522 -22.2923 -22.2884 -22.2882 -13.9290  -6.3555  -5.6980  -5.6892
     0.8499   0.8504   0.9782   7.9028   8.0934   8.0939   8.9187   8.9227
     9.2870   9.8524  10.1679  10.1722  12.5614  12.6098  12.6192  14.8680

          k = 0.0820 0.0821 0.2462     band energies (ev):

   -46.0517 -22.3128 -22.2913 -22.2873 -13.8732  -6.4043  -5.6818  -5.6054
     0.9001   0.9044   1.1525   7.2216   7.8624   7.9559   8.5083   8.5212
     9.2084   9.2318   9.8618   9.9125  12.6359  13.3025  13.3128  14.8738

          k = 0.0820 0.0821 0.4104     band energies (ev):

   -46.0512 -22.3371 -22.2902 -22.2863 -13.8158  -6.5272  -5.6676  -5.4258
     0.9510   1.0537   1.2248   6.5195   7.6838   7.7596   7.9780   8.3200
     9.0414   9.1528   9.5230   9.6655  12.6745  13.9666  13.9762  14.8672

          k = 0.0820 0.2462 0.2462     band energies (ev):

   -46.0512 -22.3119 -22.3111 -22.2903 -13.8261  -6.3131  -5.6523  -5.6116
     0.8083   0.9160   1.2464   6.9391   7.4229   7.7067   8.0320   8.3253
     8.8197   9.4603   9.5476   9.9829  13.2788  13.4075  13.6498  15.3600

          k = 0.0820 0.2462 0.4104     band energies (ev):

   -46.0507 -22.3355 -22.3103 -22.2893 -13.7779  -6.3094  -5.6258  -5.5128
     0.8193   0.9664   1.1879   6.4447   7.1269   7.3067   7.7983   8.1640
     8.9028   9.2748   9.4458   9.9792  13.3749  14.0012  14.1347  15.4474

          k = 0.0820 0.4104 0.4104     band energies (ev):

   -46.0503 -22.3341 -22.3339 -22.2884 -13.7392  -6.0801  -5.6116  -5.5735
     0.7604   0.8111   1.1738   6.2745   6.6835   6.7060   7.8485   7.9035
     8.6354   9.4862   9.6233  10.3272  14.0103  14.0436  14.4300  15.6210

          k = 0.2461 0.2462 0.2462     band energies (ev):

   -46.0507 -22.3143 -22.3106 -22.3100 -13.7850  -6.1566  -5.6177  -5.6090
     0.6731   0.6751   1.2963   6.7460   7.3843   7.3920   7.9424   8.1581
     8.1632   9.7557   9.7711   9.7890  13.7204  13.7503  13.7534  16.5536

          k = 0.2461 0.2462 0.4104     band energies (ev):

   -46.0503 -22.3342 -22.3131 -22.3092 -13.7428  -6.0799  -5.5709  -5.5272
     0.5395   0.6806   1.0776   6.4141   7.1086   7.3641   7.4409   8.1132
     8.3028   9.5727   9.8858   9.9021  13.8262  14.2030  14.2354  16.5217

          k = 0.2461 0.4104 0.4104     band energies (ev):

   -46.0498 -22.3329 -22.3327 -22.3120 -13.7069  -5.8395  -5.5388  -5.5183
     0.4309   0.4579   0.7654   6.2643   6.6874   7.2969   7.4551   8.0733
     8.1426   9.8062   9.8961  10.2995  14.2999  14.3134  14.5262  16.8636

          k = 0.4102 0.4104 0.4104     band energies (ev):

   -46.0493 -22.3354 -22.3317 -22.3315 -13.6742  -5.5747  -5.4702  -5.4618
     0.1720   0.1745   0.3277   6.1142   6.6890   6.6934   7.9129   8.1595
     8.1615  10.2251  10.2315  10.3058  14.6290  14.6306  14.6350  17.7194

          k = 0.2461-0.0821 0.0821     band energies (ev):

   -46.0517 -22.3167 -22.2874 -22.2872 -13.8734  -6.4004  -5.6752  -5.6163
     0.8994   0.9048   1.1530   7.2175   7.8602   7.9539   8.5127   8.5134
     9.2077   9.2431   9.8874   9.8949  12.6192  13.3130  13.3189  14.8669

          k = 0.4102-0.0821 0.0821     band energies (ev):

   -46.0512 -22.3409 -22.2864 -22.2862 -13.8161  -6.5219  -5.6611  -5.4384
     0.9498   1.0532   1.2270   6.5108   7.6769   7.7576   7.9830   8.3223
     9.0350   9.1552   9.5536   9.6642  12.6577  13.9709  13.9798  14.8616

          k = 0.2461-0.2462 0.0821     band energies (ev):

   -46.0512 -22.3155 -22.3115 -22.2863 -13.8262  -6.3087  -5.6594  -5.6094
     0.8096   0.9155   1.2467   6.9382   7.4129   7.7084   8.0293   8.3193
     8.8438   9.4637   9.5418   9.9777  13.2837  13.4080  13.6520  15.3579

          k = 0.4102-0.2462 0.0821     band energies (ev):

   -46.0507 -22.3394 -22.3103 -22.2854 -13.7782  -6.3025  -5.6220  -5.5243
     0.8193   0.9686   1.1878   6.4384   7.1045   7.3240   7.7949   8.1588
     8.9232   9.2761   9.4558   9.9700  13.3732  14.0038  14.1358  15.4485

          k = 0.2461 0.4104 0.0821     band energies (ev):

   -46.0507 -22.3356 -22.3141 -22.2854 -13.7780  -6.3063  -5.6299  -5.5123
     0.8212   0.9663   1.1880   6.4449   7.1202   7.3053   7.7911   8.1657
     8.9137   9.2765   9.4512   9.9709  13.3827  13.9985  14.1369  15.4507

          k = 0.4102-0.4104 0.0821     band energies (ev):

   -46.0503 -22.3378 -22.3340 -22.2845 -13.7395  -6.0708  -5.6190  -5.5765
     0.7626   0.8132   1.1731   6.2730   6.6625   6.7183   7.8364   7.9023
     8.6415   9.4992   9.6375  10.3163  14.0111  14.0431  14.4308  15.6311

          k = 0.4102-0.2462 0.2462     band energies (ev):

   -46.0503 -22.3380 -22.3095 -22.3089 -13.7430  -6.0746  -5.5643  -5.5395
     0.5379   0.6835   1.0773   6.4091   7.0971   7.3698   7.4428   8.1158
     8.3085   9.5826   9.8875   9.8935  13.8237  14.2032  14.2356  16.5216

          k = 0.4102-0.4104 0.2462     band energies (ev):

   -46.0498 -22.3366 -22.3328 -22.3081 -13.7071  -5.8314  -5.5465  -5.5191
     0.4310   0.4601   0.7645   6.2628   6.6837   7.2941   7.4550   8.0724
     8.1441   9.8152   9.9072  10.2881  14.2980  14.3121  14.5271  16.8748

     highest occupied, lowest unoccupied level (ev):    10.3272   12.5614

!    total energy              =    -303.31783751 Ry
     Harris-Foulkes estimate   =    -303.31799856 Ry
     estimated scf accuracy    <       0.00029617 Ry

     The total energy is the sum of the following terms:

     one-electron contribution =     -69.66404918 Ry
     hartree contribution      =      59.09170954 Ry
     xc contribution           =     -84.19683573 Ry
     ewald contribution        =    -208.66333122 Ry
     scf correction            =       0.11466908 Ry

     iteration # 11     ecut=   100.00 Ry     beta=0.60
     Davidson diagonalization with overlap
     ethr =  7.40E-07,  avg # of iterations =  2.2

     total cpu time spent up to now is       15.3 secs

     total energy              =    -303.31789421 Ry
     Harris-Foulkes estimate   =    -303.31789643 Ry
     estimated scf accuracy    <       0.00001011 Ry

     iteration # 12     ecut=   100.00 Ry     beta=0.60
     Davidson diagonalization with overlap
     ethr =  2.53E-08,  avg # of iterations =  2.7

     total cpu time spent up to now is       15.7 secs

     total energy              =    -303.31789608 Ry
     Harris-Foulkes estimate   =    -303.31789631 Ry
     estimated scf accuracy    <       0.00000091 Ry

     iteration # 13     ecut=   100.00 Ry     beta=0.60
     Davidson diagonalization with overlap
     ethr =  2.27E-09,  avg # of iterations =  2.7

     total cpu time spent up to now is       16.2 secs

     total energy              =    -303.31789610 Ry
     Harris-Foulkes estimate   =    -303.31789621 Ry
     estimated scf accuracy    <       0.00000064 Ry

     iteration # 14     ecut=   100.00 Ry     beta=0.60
     Davidson diagonalization with overlap
     ethr =  1.60E-09,  avg # of iterations =  1.0

     total cpu time spent up to now is       16.5 secs

     total energy              =    -303.31789611 Ry
     Harris-Foulkes estimate   =    -303.31789612 Ry
     estimated scf accuracy    <       0.00000032 Ry

     iteration # 15     ecut=   100.00 Ry     beta=0.60
     Davidson diagonalization with overlap
     ethr =  8.11E-10,  avg # of iterations =  2.0

     total cpu time spent up to now is       16.9 secs

     total energy              =    -303.31789607 Ry
     Harris-Foulkes estimate   =    -303.31789613 Ry
     estimated scf accuracy    <       0.00000028 Ry

     iteration # 16     ecut=   100.00 Ry     beta=0.60
     Davidson diagonalization with overlap
     ethr =  7.09E-10,  avg # of iterations =  1.0

     total cpu time spent up to now is       17.2 secs

     total energy              =    -303.31789605 Ry
     Harris-Foulkes estimate   =    -303.31789608 Ry
     estimated scf accuracy    <       0.00000009 Ry

     iteration # 17     ecut=   100.00 Ry     beta=0.60
     Davidson diagonalization with overlap
     ethr =  2.19E-10,  avg # of iterations =  2.5

     total cpu time spent up to now is       17.6 secs

     total energy              =    -303.31789606 Ry
     Harris-Foulkes estimate   =    -303.31789607 Ry
     estimated scf accuracy    <          6.1E-09 Ry

     iteration # 18     ecut=   100.00 Ry     beta=0.60
     Davidson diagonalization with overlap
     ethr =  1.52E-11,  avg # of iterations =  2.4

     total cpu time spent up to now is       18.0 secs

     total energy              =    -303.31789606 Ry
     Harris-Foulkes estimate   =    -303.31789607 Ry
     estimated scf accuracy    <          2.5E-09 Ry

     iteration # 19     ecut=   100.00 Ry     beta=0.60
     Davidson diagonalization with overlap
     ethr =  6.21E-12,  avg # of iterations =  3.3

     total cpu time spent up to now is       18.5 secs

     total energy              =    -303.31789607 Ry
     Harris-Foulkes estimate   =    -303.31789607 Ry
     estimated scf accuracy    <          1.5E-10 Ry

     iteration # 20     ecut=   100.00 Ry     beta=0.60
     Davidson diagonalization with overlap
     ethr =  3.72E-13,  avg # of iterations =  2.2

     total cpu time spent up to now is       18.9 secs

          k = 0.0820 0.0821 0.0821     band energies (ev):

   -45.9721 -22.2183 -22.2146 -22.2144 -13.9493  -6.3145  -5.6523  -5.6438
     0.8327   0.8331   0.9608   7.9405   8.1343   8.1346   8.9530   8.9569
     9.3227   9.8962  10.2109  10.2152  12.6153  12.6640  12.6734  14.9371

          k = 0.0820 0.0821 0.2462     band energies (ev):

   -45.9716 -22.2392 -22.2172 -22.2135 -13.8938  -6.3637  -5.6360  -5.5605
     0.8823   0.8875   1.1356   7.2647   7.9022   7.9957   8.5408   8.5552
     9.2434   9.2715   9.9040   9.9552  12.6909  13.3589  13.3694  14.9430

          k = 0.0820 0.0821 0.4104     band energies (ev):

   -45.9711 -22.2636 -22.2162 -22.2125 -13.8368  -6.4873  -5.6216  -5.3809
     0.9326   1.0357   1.2095   6.5675   7.7210   7.7981   8.0111   8.3506
     9.0750   9.1891   9.5661   9.7099  12.7304  14.0264  14.0363  14.9365

          k = 0.0820 0.2462 0.2462     band energies (ev):

   -45.9711 -22.2383 -22.2375 -22.2163 -13.8470  -6.2720  -5.6081  -5.5660
     0.7925   0.8984   1.2289   6.9783   7.4721   7.7437   8.0674   8.3584
     8.8585   9.4958   9.5903  10.0205  13.3357  13.4654  13.7056  15.4287

          k = 0.0820 0.2462 0.4104     band energies (ev):

   -45.9706 -22.2621 -22.2366 -22.2153 -13.7991  -6.2682  -5.5804  -5.4686
     0.8030   0.9508   1.1697   6.4912   7.1614   7.3507   7.8349   8.1961
     8.9440   9.3118   9.4828  10.0166  13.4330  14.0617  14.1933  15.5159

          k = 0.0820 0.4104 0.4104     band energies (ev):

   -45.9702 -22.2607 -22.2605 -22.2144 -13.7607  -6.0366  -5.5685  -5.5294
     0.7461   0.7964   1.1542   6.3195   6.7352   6.7357   7.8824   7.9359
     8.6829   9.5203   9.6575  10.3665  14.0711  14.1048  14.4894  15.6881

          k = 0.2461 0.2462 0.2462     band energies (ev):

   -45.9706 -22.2405 -22.2370 -22.2364 -13.8061  -6.1153  -5.5725  -5.5641
     0.6571   0.6590   1.2789   6.7824   7.4337   7.4412   7.9827   8.1888
     8.1940   9.7932   9.8087   9.8264  13.7788  13.8073  13.8105  16.6231

          k = 0.2461 0.2462 0.4104     band energies (ev):

   -45.9702 -22.2607 -22.2392 -22.2355 -13.7642  -6.0379  -5.5250  -5.4830
     0.5231   0.6660   1.0608   6.4597   7.1472   7.4131   7.4811   8.1425
     8.3365   9.6100   9.9228   9.9394  13.8852  14.2619  14.2959  16.5905

          k = 0.2461 0.4104 0.4104     band energies (ev):

   -45.9697 -22.2594 -22.2593 -22.2381 -13.7285  -5.7955  -5.4946  -5.4733
     0.4156   0.4435   0.7493   6.3086   6.7397   7.3312   7.4993   8.1037
     8.1733   9.8430   9.9331  10.3388  14.3608  14.3744  14.5867  16.9270

          k = 0.4102 0.4104 0.4104     band energies (ev):

   -45.9692 -22.2617 -22.2582 -22.2581 -13.6959  -5.5299  -5.4245  -5.4164
     0.1571   0.1597   0.3130   6.1566   6.7416   6.7458   7.9421   8.1889
     8.1908  10.2642  10.2705  10.3456  14.6909  14.6924  14.6970  17.7375

          k = 0.2461-0.0821 0.0821     band energies (ev):

   -45.9716 -22.2428 -22.2136 -22.2134 -13.8940  -6.3600  -5.6296  -5.5710
     0.8816   0.8879   1.1361   7.2609   7.9000   7.9935   8.5450   8.5478
     9.2424   9.2829   9.9289   9.9384  12.6741  13.3694  13.3758  14.9360

          k = 0.4102-0.0821 0.0821     band energies (ev):

   -45.9711 -22.2672 -22.2126 -22.2124 -13.8372  -6.4822  -5.6153  -5.3931
     0.9314   1.0353   1.2118   6.5590   7.7139   7.7959   8.0164   8.3530
     9.0685   9.1914   9.5966   9.7085  12.7135  14.0308  14.0401  14.9308

          k = 0.2461-0.2462 0.0821     band energies (ev):

   -45.9711 -22.2416 -22.2378 -22.2126 -13.8472  -6.2678  -5.6149  -5.5638
     0.7938   0.8979   1.2292   6.9774   7.4620   7.7458   8.0647   8.3525
     8.8822   9.4994   9.5841  10.0154  13.3405  13.4659  13.7081  15.4265

          k = 0.4102-0.2462 0.0821     band energies (ev):

   -45.9706 -22.2657 -22.2366 -22.2116 -13.7995  -6.2616  -5.5769  -5.4797
     0.8029   0.9531   1.1696   6.4851   7.1397   7.3675   7.8314   8.1911
     8.9641   9.3131   9.4923  10.0076  13.4311  14.0644  14.1946  15.5168

          k = 0.2461 0.4104 0.0821     band energies (ev):

   -45.9706 -22.2621 -22.2403 -22.2116 -13.7993  -6.2653  -5.5843  -5.4681
     0.8049   0.9508   1.1698   6.4914   7.1549   7.3495   7.8276   8.1977
     8.9550   9.3134   9.4877  10.0085  13.4408  14.0588  14.1956  15.5191

          k = 0.4102-0.4104 0.0821     band energies (ev):

   -45.9702 -22.2641 -22.2606 -22.2107 -13.7610  -6.0277  -5.5756  -5.5323
     0.7483   0.7985   1.1534   6.3182   6.7051   6.7574   7.8704   7.9348
     8.6887   9.5329   9.6714  10.3558  14.0718  14.1043  14.4903  15.6982

          k = 0.4102-0.2462 0.2462     band energies (ev):

   -45.9702 -22.2643 -22.2358 -22.2353 -13.7644  -6.0328  -5.5187  -5.4949
     0.5215   0.6690   1.0604   6.4549   7.1356   7.4191   7.4827   8.1453
     8.3420   9.6197   9.9242   9.9313  13.8825  14.2622  14.2963  16.5903

          k = 0.4102-0.4104 0.2462     band energies (ev):

   -45.9697 -22.2629 -22.2593 -22.2345 -13.7287  -5.7878  -5.5020  -5.4741
     0.4158   0.4457   0.7484   6.3072   6.7361   7.3282   7.4992   8.1029
     8.1749   9.8518   9.9439  10.3277  14.3589  14.3730  14.5878  16.9383

     highest occupied, lowest unoccupied level (ev):    10.3665   12.6153

!    total energy              =    -303.31789607 Ry
     Harris-Foulkes estimate   =    -303.31789607 Ry
     estimated scf accuracy    <          1.0E-10 Ry

     The total energy is the sum of the following terms:

     one-electron contribution =     -69.54963987 Ry
     hartree contribution      =      59.09220637 Ry
     xc contribution           =     -84.19720061 Ry
     ewald contribution        =    -208.66333122 Ry
     scf correction            =       0.00006927 Ry

     iteration # 21     ecut=   100.00 Ry     beta=0.60
     Davidson diagonalization with overlap
     ethr =  2.54E-13,  avg # of iterations =  2.0

     total cpu time spent up to now is       19.3 secs

     End of self-consistent calculation

          k = 0.0820 0.0821 0.0821 (  6850 PWs)   bands (ev):

   -45.9720 -22.2182 -22.2146 -22.2144 -13.9493  -6.3145  -5.6523  -5.6438
     0.8327   0.8331   0.9608   7.9405   8.1343   8.1347   8.9530   8.9570
     9.3227   9.8962  10.2109  10.2152  12.6154  12.6640  12.6735  14.9371

          k = 0.0820 0.0821 0.2462 (  6839 PWs)   bands (ev):

   -45.9715 -22.2391 -22.2172 -22.2135 -13.8938  -6.3637  -5.6360  -5.5605
     0.8822   0.8875   1.1355   7.2647   7.9022   7.9957   8.5408   8.5552
     9.2434   9.2715   9.9040   9.9553  12.6909  13.3589  13.3694  14.9430

          k = 0.0820 0.0821 0.4104 (  6839 PWs)   bands (ev):

   -45.9711 -22.2636 -22.2162 -22.2124 -13.8368  -6.4873  -5.6216  -5.3809
     0.9326   1.0357   1.2095   6.5675   7.7210   7.7981   8.0112   8.3506
     9.0750   9.1891   9.5661   9.7099  12.7304  14.0265  14.0364  14.9365

          k = 0.0820 0.2462 0.2462 (  6847 PWs)   bands (ev):

   -45.9711 -22.2383 -22.2374 -22.2162 -13.8470  -6.2720  -5.6080  -5.5659
     0.7925   0.8984   1.2289   6.9783   7.4721   7.7438   8.0674   8.3584
     8.8585   9.4958   9.5903  10.0205  13.3357  13.4654  13.7057  15.4288

          k = 0.0820 0.2462 0.4104 (  6833 PWs)   bands (ev):

   -45.9706 -22.2621 -22.2366 -22.2152 -13.7992  -6.2682  -5.5804  -5.4686
     0.8030   0.9508   1.1696   6.4912   7.1614   7.3507   7.8349   8.1961
     8.9440   9.3119   9.4828  10.0166  13.4330  14.0617  14.1934  15.5159

          k = 0.0820 0.4104 0.4104 (  6854 PWs)   bands (ev):

   -45.9701 -22.2606 -22.2604 -22.2143 -13.7607  -6.0366  -5.5685  -5.5294
     0.7461   0.7964   1.1542   6.3195   6.7352   6.7357   7.8824   7.9359
     8.6829   9.5203   9.6576  10.3665  14.0711  14.1049  14.4894  15.6881

          k = 0.2461 0.2462 0.2462 (  6881 PWs)   bands (ev):

   -45.9706 -22.2404 -22.2369 -22.2363 -13.8062  -6.1153  -5.5724  -5.5640
     0.6570   0.6590   1.2789   6.7824   7.4337   7.4413   7.9827   8.1889
     8.1940   9.7933   9.8087   9.8265  13.7789  13.8073  13.8106  16.6232

          k = 0.2461 0.2462 0.4104 (  6839 PWs)   bands (ev):

   -45.9701 -22.2607 -22.2392 -22.2355 -13.7642  -6.0379  -5.5250  -5.4830
     0.5231   0.6660   1.0608   6.4597   7.1472   7.4132   7.4811   8.1425
     8.3366   9.6100   9.9228   9.9394  13.8853  14.2620  14.2960  16.5905

          k = 0.2461 0.4104 0.4104 (  6851 PWs)   bands (ev):

   -45.9696 -22.2594 -22.2592 -22.2381 -13.7286  -5.7955  -5.4946  -5.4733
     0.4156   0.4435   0.7493   6.3086   6.7398   7.3312   7.4993   8.1037
     8.1733   9.8430   9.9332  10.3389  14.3609  14.3745  14.5868  16.9270

          k = 0.4102 0.4104 0.4104 (  6854 PWs)   bands (ev):

   -45.9692 -22.2616 -22.2581 -22.2580 -13.6959  -5.5299  -5.4244  -5.4163
     0.1571   0.1597   0.3130   6.1566   6.7416   6.7458   7.9421   8.1889
     8.1908  10.2643  10.2705  10.3456  14.6909  14.6925  14.6970  17.7375

          k = 0.2461-0.0821 0.0821 (  6839 PWs)   bands (ev):

   -45.9715 -22.2428 -22.2136 -22.2134 -13.8940  -6.3600  -5.6296  -5.5710
     0.8815   0.8879   1.1361   7.2609   7.9000   7.9935   8.5450   8.5479
     9.2424   9.2829   9.9289   9.9384  12.6741  13.3694  13.3758  14.9360

          k = 0.4102-0.0821 0.0821 (  6839 PWs)   bands (ev):

   -45.9711 -22.2671 -22.2125 -22.2124 -13.8372  -6.4822  -5.6153  -5.3931
     0.9314   1.0352   1.2117   6.5590   7.7139   7.7959   8.0164   8.3531
     9.0685   9.1914   9.5966   9.7085  12.7135  14.0309  14.0402  14.9309

          k = 0.2461-0.2462 0.0821 (  6847 PWs)   bands (ev):

   -45.9711 -22.2416 -22.2378 -22.2125 -13.8472  -6.2678  -5.6148  -5.5638
     0.7938   0.8979   1.2292   6.9774   7.4620   7.7459   8.0647   8.3525
     8.8822   9.4994   9.5841  10.0154  13.3405  13.4659  13.7081  15.4266

          k = 0.4102-0.2462 0.0821 (  6833 PWs)   bands (ev):

   -45.9706 -22.2656 -22.2366 -22.2115 -13.7995  -6.2616  -5.5768  -5.4796
     0.8029   0.9531   1.1696   6.4851   7.1397   7.3675   7.8314   8.1911
     8.9642   9.3131   9.4923  10.0076  13.4311  14.0644  14.1946  15.5169

          k = 0.2461 0.4104 0.0821 (  6833 PWs)   bands (ev):

   -45.9706 -22.2621 -22.2402 -22.2115 -13.7993  -6.2653  -5.5843  -5.4681
     0.8048   0.9508   1.1698   6.4914   7.1549   7.3496   7.8277   8.1978
     8.9550   9.3134   9.4877  10.0085  13.4409  14.0588  14.1957  15.5192

          k = 0.4102-0.4104 0.0821 (  6854 PWs)   bands (ev):

   -45.9701 -22.2641 -22.2605 -22.2106 -13.7610  -6.0277  -5.5756  -5.5323
     0.7483   0.7985   1.1534   6.3182   6.7052   6.7574   7.8704   7.9348
     8.6887   9.5329   9.6714  10.3558  14.0719  14.1043  14.4904  15.6982

          k = 0.4102-0.2462 0.2462 (  6839 PWs)   bands (ev):

   -45.9701 -22.2642 -22.2358 -22.2352 -13.7644  -6.0328  -5.5187  -5.4948
     0.5215   0.6689   1.0604   6.4549   7.1356   7.4191   7.4827   8.1453
     8.3420   9.6198   9.9242   9.9313  13.8825  14.2623  14.2964  16.5903

          k = 0.4102-0.4104 0.2462 (  6851 PWs)   bands (ev):

   -45.9696 -22.2629 -22.2593 -22.2345 -13.7287  -5.7878  -5.5020  -5.4741
     0.4158   0.4457   0.7484   6.3073   6.7362   7.3283   7.4992   8.1029
     8.1749   9.8518   9.9439  10.3277  14.3589  14.3731  14.5879  16.9383

     highest occupied, lowest unoccupied level (ev):    10.3665   12.6154

!    total energy              =    -303.31789607 Ry
     Harris-Foulkes estimate   =    -303.31789607 Ry
     estimated scf accuracy    <          7.0E-13 Ry

     The total energy is the sum of the following terms:

     one-electron contribution =     -69.54957509 Ry
     hartree contribution      =      59.09221199 Ry
     xc contribution           =     -84.19720175 Ry
     ewald contribution        =    -208.66333122 Ry

     convergence has been achieved in  21 iterations

     Forces acting on atoms (cartesian axes, Ry/au):

     atom    1 type  3   force =    -0.00429722    0.00000000    0.00000000
     atom    2 type  2   force =    -0.00016878    0.00000000    0.00000000
     atom    3 type  1   force =     0.00579598    0.00000000    0.00000000
     atom    4 type  1   force =    -0.00066499    0.00000000    0.00000000
     atom    5 type  1   force =    -0.00066499    0.00000000    0.00000000

     Total force =     0.007278     Total SCF correction =     0.000000


     Computing stress (Cartesian axis) and pressure

          total   stress  (Ry/bohr**3)                   (kbar)     P=    6.63
   0.00004996   0.00000000   0.00000000          7.35      0.00      0.00
   0.00000000   0.00004258   0.00000000          0.00      6.26      0.00
   0.00000000   0.00000000   0.00004258          0.00      0.00      6.26


     number of scf cycles    =   2
     number of bfgs steps    =   1

     enthalpy old            =    -303.3117111732 Ry
     enthalpy new            =    -303.3178960652 Ry

     CASE: enthalpy_new < enthalpy_old

     new trust radius        =       0.0064996265 bohr
     new conv_thr            =            5.8E-14 Ry

     new unit-cell volume =    426.02788 a.u.^3 (    63.13082 Ang^3 )
     density =      6.13337 g/cm^3

CELL_PARAMETERS (alat=  7.40000000)
   1.017228909   0.000000000   0.000000000
   0.000000000   1.016628042   0.000000000
   0.000000000   0.000000000   1.016628042

ATOMIC_POSITIONS (crystal)
Ba      -0.001420001   0.000000000   0.000000000
Ti       0.490497859   0.500000000   0.500000000
O        0.001216716   0.500000000   0.500000000
O        0.499852713   0.000000000   0.500000000
O        0.499852713   0.500000000   0.000000000



     Writing output data file bto.save
     NEW-OLD atomic charge density approx. for the potential
     extrapolated charge   40.15345, renormalised to   40.00000

     total cpu time spent up to now is       20.8 secs

     per-process dynamical memory:    71.3 Mb

     Self-consistent Calculation

     iteration #  1     ecut=   100.00 Ry     beta=0.60
     Davidson diagonalization with overlap
     ethr =  1.00E-06,  avg # of iterations =  4.2

     total cpu time spent up to now is       21.4 secs

     total energy              =    -303.31500357 Ry
     Harris-Foulkes estimate   =    -303.08763093 Ry
     estimated scf accuracy    <       0.00232307 Ry

     iteration #  2     ecut=   100.00 Ry     beta=0.60
     Davidson diagonalization with overlap
     ethr =  5.81E-06,  avg # of iterations =  4.2

     total cpu time spent up to now is       22.0 secs

     total energy              =    -303.31713562 Ry
     Harris-Foulkes estimate   =    -303.32041753 Ry
     estimated scf accuracy    <       0.01044886 Ry

     iteration #  3     ecut=   100.00 Ry     beta=0.60
     Davidson diagonalization with overlap
     ethr =  5.81E-06,  avg # of iterations =  3.2

     total cpu time spent up to now is       22.5 secs

     total energy              =    -303.31810893 Ry
     Harris-Foulkes estimate   =    -303.31835721 Ry
     estimated scf accuracy    <       0.00108726 Ry

     iteration #  4     ecut=   100.00 Ry     beta=0.60
     Davidson diagonalization with overlap
     ethr =  2.72E-06,  avg # of iterations =  1.3

     total cpu time spent up to now is       22.9 secs

     total energy              =    -303.31798990 Ry
     Harris-Foulkes estimate   =    -303.31816120 Ry
     estimated scf accuracy    <       0.00056321 Ry

     iteration #  5     ecut=   100.00 Ry     beta=0.60
     Davidson diagonalization with overlap
     ethr =  1.41E-06,  avg # of iterations =  2.2

     total cpu time spent up to now is       23.3 secs

     total energy              =    -303.31800408 Ry
     Harris-Foulkes estimate   =    -303.31802898 Ry
     estimated scf accuracy    <       0.00014288 Ry

     iteration #  6     ecut=   100.00 Ry     beta=0.60
     Davidson diagonalization with overlap
     ethr =  3.57E-07,  avg # of iterations =  1.3

     total cpu time spent up to now is       23.6 secs

     total energy              =    -303.31798635 Ry
     Harris-Foulkes estimate   =    -303.31800897 Ry
     estimated scf accuracy    <       0.00006740 Ry

     iteration #  7     ecut=   100.00 Ry     beta=0.60
     Davidson diagonalization with overlap
     ethr =  1.69E-07,  avg # of iterations =  1.9

     total cpu time spent up to now is       24.0 secs

     total energy              =    -303.31798742 Ry
     Harris-Foulkes estimate   =    -303.31799255 Ry
     estimated scf accuracy    <       0.00000920 Ry

     iteration #  8     ecut=   100.00 Ry     beta=0.60
     Davidson diagonalization with overlap
     ethr =  2.30E-08,  avg # of iterations =  3.1

     total cpu time spent up to now is       24.5 secs

     total energy              =    -303.31799073 Ry
     Harris-Foulkes estimate   =    -303.31799086 Ry
     estimated scf accuracy    <       0.00000056 Ry

     iteration #  9     ecut=   100.00 Ry     beta=0.60
     Davidson diagonalization with overlap
     ethr =  1.39E-09,  avg # of iterations =  1.9

     total cpu time spent up to now is       24.9 secs

     total energy              =    -303.31799074 Ry
     Harris-Foulkes estimate   =    -303.31799077 Ry
     estimated scf accuracy    <       0.00000018 Ry

     iteration # 10     ecut=   100.00 Ry     beta=0.60
     Davidson diagonalization with overlap
     ethr =  4.60E-10,  avg # of iterations =  2.2

     total cpu time spent up to now is       25.2 secs

          k = 0.0819 0.0820 0.0820     band energies (ev):

   -46.0426 -22.2868 -22.2826 -22.2824 -14.0171  -6.3619  -5.6993  -5.6902
     0.7668   0.7670   0.8930   7.8848   8.0771   8.0783   8.9052   8.9090
     9.2740   9.8362  10.1512  10.1557  12.5521  12.6010  12.6110  14.8551

          k = 0.0819 0.0820 0.2459     band energies (ev):

   -46.0421 -22.3067 -22.2858 -22.2815 -13.9627  -6.4085  -5.6830  -5.6093
     0.8155   0.8204   1.0647   7.2144   7.8490   7.9423   8.4919   8.5070
     9.1945   9.2167   9.8453   9.8978  12.6279  13.2909  13.3016  14.8611

          k = 0.0819 0.0820 0.4099     band energies (ev):

   -46.0417 -22.3306 -22.2848 -22.2805 -13.9070  -6.5287  -5.6688  -5.4332
     0.8654   0.9664   1.1367   6.5220   7.6716   7.7487   7.9632   8.3005
     9.0271   9.1350   9.5079   9.6549  12.6671  13.9541  13.9638  14.8543

          k = 0.0819 0.2459 0.2459     band energies (ev):

   -46.0417 -22.3058 -22.3050 -22.2849 -13.9169  -6.3170  -5.6557  -5.6145
     0.7262   0.8314   1.1563   6.9302   7.4226   7.6962   8.0144   8.3113
     8.8038   9.4449   9.5358   9.9634  13.2674  13.3971  13.6359  15.3433

          k = 0.0819 0.2459 0.4099     band energies (ev):

   -46.0412 -22.3292 -22.3042 -22.2839 -13.8699  -6.3116  -5.6285  -5.5193
     0.7367   0.8820   1.0978   6.4457   7.1170   7.3027   7.7857   8.1465
     8.8876   9.2596   9.4301   9.9618  13.3643  13.9892  14.1202  15.4292

          k = 0.0819 0.4099 0.4099     band energies (ev):

   -46.0407 -22.3278 -22.3276 -22.2830 -13.8322  -6.0817  -5.6175  -5.5789
     0.6793   0.7293   1.0829   6.2731   6.6922   6.6926   7.8348   7.8904
     8.6266   9.4646   9.6006  10.3120  13.9982  14.0319  14.4146  15.5988

          k = 0.2458 0.2459 0.2459     band energies (ev):

   -46.0412 -22.3086 -22.3045 -22.3039 -13.8768  -6.1615  -5.6215  -5.6122
     0.5930   0.5954   1.2052   6.7362   7.3849   7.3930   7.9317   8.1383
     8.1429   9.7400   9.7529   9.7738  13.7068  13.7366  13.7401  16.5336

          k = 0.2458 0.2459 0.4099     band energies (ev):

   -46.0407 -22.3278 -22.3073 -22.3031 -13.8357  -6.0836  -5.5744  -5.5333
     0.4617   0.6013   0.9904   6.4138   7.1015   7.3642   7.4327   8.0879
     8.2833   9.5579   9.8676   9.8874  13.8131  14.1884  14.2213  16.5000

          k = 0.2458 0.4099 0.4099     band energies (ev):

   -46.0403 -22.3266 -22.3264 -22.3063 -13.8006  -5.8435  -5.5445  -5.5237
     0.3551   0.3817   0.6840   6.2614   6.6962   7.2822   7.4491   8.0503
     8.1181   9.7893   9.8784  10.2851  14.2858  14.2994  14.5108  16.8336

          k = 0.4096 0.4099 0.4099     band energies (ev):

   -46.0398 -22.3293 -22.3253 -22.3252 -13.7686  -5.5806  -5.4763  -5.4673
     0.0997   0.1029   0.2538   6.1090   6.6985   6.7023   7.8861   8.1306
     8.1323  10.2091  10.2165  10.2912  14.6133  14.6150  14.6197  17.6524

          k = 0.2458-0.0820 0.0820     band energies (ev):

   -46.0421 -22.3109 -22.2816 -22.2814 -13.9630  -6.4048  -5.6761  -5.6207
     0.8150   0.8209   1.0653   7.2104   7.8474   7.9412   8.4962   8.4993
     9.1942   9.2286   9.8706   9.8817  12.6102  13.3013  13.3075  14.8539

          k = 0.4096-0.0820 0.0820     band energies (ev):

   -46.0417 -22.3347 -22.2805 -22.2804 -13.9075  -6.5235  -5.6620  -5.4467
     0.8641   0.9660   1.1393   6.5142   7.6663   7.7479   7.9675   8.3028
     9.0205   9.1374   9.5412   9.6543  12.6493  13.9574  13.9664  14.8487

          k = 0.2458-0.2459 0.0820     band energies (ev):

   -46.0417 -22.3097 -22.3054 -22.2805 -13.9171  -6.3128  -5.6633  -5.6121
     0.7277   0.8310   1.1567   6.9297   7.4121   7.6981   8.0122   8.3061
     8.8303   9.4482   9.5294   9.9572  13.2724  13.3969  13.6380  15.3418

          k = 0.4096-0.2459 0.0820     band energies (ev):

   -46.0412 -22.3332 -22.3042 -22.2796 -13.8704  -6.3048  -5.6247  -5.5317
     0.7368   0.8848   1.0980   6.4405   7.0963   7.3184   7.7842   8.1417
     8.9107   9.2607   9.4398   9.9514  13.3622  13.9906  14.1205  15.4314

          k = 0.2458 0.4099 0.0820     band energies (ev):

   -46.0412 -22.3292 -22.3084 -22.2796 -13.8701  -6.3086  -5.6329  -5.5188
     0.7390   0.8821   1.0982   6.4461   7.1101   7.3013   7.7795   8.1495
     8.9003   9.2610   9.4344   9.9522  13.3719  13.9859  14.1224  15.4336

          k = 0.4096-0.4099 0.0820     band energies (ev):

   -46.0407 -22.3317 -22.3277 -22.2787 -13.8326  -6.0725  -5.6257  -5.5821
     0.6822   0.7320   1.0824   6.2726   6.6624   6.7143   7.8253   7.8896
     8.6331   9.4772   9.6145  10.2995  13.9983  14.0303  14.4148  15.6112

          k = 0.4096-0.2459 0.2459     band energies (ev):

   -46.0407 -22.3319 -22.3034 -22.3029 -13.8359  -6.0781  -5.5675  -5.5467
     0.4598   0.6049   0.9901   6.4099   7.0904   7.3715   7.4326   8.0905
     8.2900   9.5690   9.8682   9.8790  13.8105  14.1880  14.2208  16.5011

          k = 0.4096-0.4099 0.2459     band energies (ev):

   -46.0403 -22.3305 -22.3265 -22.3021 -13.8009  -5.8353  -5.5530  -5.5245
     0.3553   0.3846   0.6831   6.2607   6.6930   7.2795   7.4492   8.0497
     8.1200   9.7987   9.8898  10.2721  14.2833  14.2976  14.5113  16.8476

     highest occupied, lowest unoccupied level (ev):    10.3120   12.5521

!    total energy              =    -303.31799073 Ry
     Harris-Foulkes estimate   =    -303.31799075 Ry
     estimated scf accuracy    <       0.00000006 Ry

     The total energy is the sum of the following terms:

     one-electron contribution =     -69.94687931 Ry
     hartree contribution      =      59.19805741 Ry
     xc contribution           =     -84.18449476 Ry
     ewald contribution        =    -208.38353108 Ry
     scf correction            =      -0.00114299 Ry

     iteration # 11     ecut=   100.00 Ry     beta=0.60
     Davidson diagonalization with overlap
     ethr =  1.55E-10,  avg # of iterations =  3.1

     total cpu time spent up to now is       25.7 secs

     total energy              =    -303.31799074 Ry
     Harris-Foulkes estimate   =    -303.31799074 Ry
     estimated scf accuracy    <          2.9E-09 Ry

     iteration # 12     ecut=   100.00 Ry     beta=0.60
     Davidson diagonalization with overlap
     ethr =  7.28E-12,  avg # of iterations =  2.3

     total cpu time spent up to now is       26.1 secs

     total energy              =    -303.31799074 Ry
     Harris-Foulkes estimate   =    -303.31799074 Ry
     estimated scf accuracy    <          1.9E-09 Ry

     iteration # 13     ecut=   100.00 Ry     beta=0.60
     Davidson diagonalization with overlap
     ethr =  4.78E-12,  avg # of iterations =  2.8

     total cpu time spent up to now is       26.5 secs

     total energy              =    -303.31799074 Ry
     Harris-Foulkes estimate   =    -303.31799074 Ry
     estimated scf accuracy    <          2.2E-11 Ry

     iteration # 14     ecut=   100.00 Ry     beta=0.60
     Davidson diagonalization with overlap
     ethr =  1.00E-13,  avg # of iterations =  3.2

     total cpu time spent up to now is       27.0 secs

     total energy              =    -303.31799074 Ry
     Harris-Foulkes estimate   =    -303.31799074 Ry
     estimated scf accuracy    <          1.1E-11 Ry

     iteration # 15     ecut=   100.00 Ry     beta=0.60
     Davidson diagonalization with overlap
     ethr =  1.00E-13,  avg # of iterations =  2.0

     total cpu time spent up to now is       27.4 secs

     total energy              =    -303.31799074 Ry
     Harris-Foulkes estimate   =    -303.31799074 Ry
     estimated scf accuracy    <          5.9E-12 Ry

     iteration # 16     ecut=   100.00 Ry     beta=0.60
     Davidson diagonalization with overlap
     ethr =  1.00E-13,  avg # of iterations =  1.0

     total cpu time spent up to now is       27.7 secs

     total energy              =    -303.31799074 Ry
     Harris-Foulkes estimate   =    -303.31799074 Ry
     estimated scf accuracy    <          4.3E-12 Ry

     iteration # 17     ecut=   100.00 Ry     beta=0.60
     Davidson diagonalization with overlap
     ethr =  1.00E-13,  avg # of iterations =  1.0

     total cpu time spent up to now is       28.1 secs

     End of self-consistent calculation

          k = 0.0819 0.0820 0.0820 (  6850 PWs)   bands (ev):

   -46.0435 -22.2877 -22.2835 -22.2833 -14.0169  -6.3619  -5.6993  -5.6902
     0.7669   0.7671   0.8931   7.8848   8.0771   8.0782   8.9051   8.9089
     9.2740   9.8361  10.1511  10.1557  12.5515  12.6004  12.6103  14.8544

          k = 0.0819 0.0820 0.2459 (  6839 PWs)   bands (ev):

   -46.0431 -22.3075 -22.2867 -22.2824 -13.9626  -6.4085  -5.6830  -5.6093
     0.8157   0.8206   1.0649   7.2143   7.8490   7.9422   8.4919   8.5070
     9.1945   9.2166   9.8452   9.8978  12.6273  13.2903  13.3010  14.8604

          k = 0.0819 0.0820 0.4099 (  6839 PWs)   bands (ev):

   -46.0426 -22.3315 -22.2857 -22.2814 -13.9068  -6.5287  -5.6688  -5.4332
     0.8655   0.9666   1.1369   6.5218   7.6715   7.7487   7.9631   8.3005
     9.0270   9.1350   9.5079   9.6549  12.6664  13.9535  13.9631  14.8536

          k = 0.0819 0.2459 0.2459 (  6847 PWs)   bands (ev):

   -46.0426 -22.3067 -22.3059 -22.2858 -13.9167  -6.3170  -5.6557  -5.6145
     0.7263   0.8315   1.1565   6.9301   7.4224   7.6961   8.0144   8.3112
     8.8038   9.4449   9.5357   9.9634  13.2668  13.3965  13.6353  15.3426

          k = 0.0819 0.2459 0.4099 (  6833 PWs)   bands (ev):

   -46.0421 -22.3300 -22.3050 -22.2848 -13.8698  -6.3115  -5.6285  -5.5193
     0.7369   0.8822   1.0979   6.4456   7.1169   7.3026   7.7857   8.1464
     8.8876   9.2596   9.4301   9.9618  13.3637  13.9885  14.1195  15.4285

          k = 0.0819 0.4099 0.4099 (  6854 PWs)   bands (ev):

   -46.0417 -22.3286 -22.3284 -22.2839 -13.8320  -6.0817  -5.6175  -5.5789
     0.6795   0.7295   1.0830   6.2730   6.6919   6.6925   7.8347   7.8903
     8.6266   9.4646   9.6007  10.3119  13.9976  14.0313  14.4139  15.5981

          k = 0.2458 0.2459 0.2459 (  6881 PWs)   bands (ev):

   -46.0421 -22.3094 -22.3054 -22.3048 -13.8766  -6.1615  -5.6215  -5.6123
     0.5932   0.5955   1.2053   6.7362   7.3847   7.3928   7.9316   8.1382
     8.1428   9.7400   9.7528   9.7738  13.7062  13.7360  13.7395  16.5330

          k = 0.2458 0.2459 0.4099 (  6839 PWs)   bands (ev):

   -46.0417 -22.3287 -22.3082 -22.3040 -13.8355  -6.0836  -5.5744  -5.5334
     0.4618   0.6015   0.9906   6.4136   7.1014   7.3641   7.4326   8.0879
     8.2832   9.5579   9.8676   9.8874  13.8125  14.1878  14.2206  16.4993

          k = 0.2458 0.4099 0.4099 (  6851 PWs)   bands (ev):

   -46.0412 -22.3274 -22.3273 -22.3072 -13.8005  -5.8435  -5.5445  -5.5237
     0.3552   0.3819   0.6842   6.2613   6.6960   7.2821   7.4490   8.0502
     8.1180   9.7893   9.8784  10.2850  14.2851  14.2988  14.5101  16.8330

          k = 0.4096 0.4099 0.4099 (  6854 PWs)   bands (ev):

   -46.0407 -22.3302 -22.3262 -22.3261 -13.7684  -5.5806  -5.4763  -5.4674
     0.0999   0.1031   0.2539   6.1090   6.6983   6.7021   7.8860   8.1305
     8.1322  10.2091  10.2165  10.2912  14.6126  14.6144  14.6191  17.6523

          k = 0.2458-0.0820 0.0820 (  6839 PWs)   bands (ev):

   -46.0431 -22.3118 -22.2824 -22.2823 -13.9628  -6.4049  -5.6762  -5.6206
     0.8151   0.8210   1.0654   7.2103   7.8473   7.9412   8.4961   8.4992
     9.1942   9.2286   9.8706   9.8816  12.6095  13.3007  13.3068  14.8532

          k = 0.4096-0.0820 0.0820 (  6839 PWs)   bands (ev):

   -46.0426 -22.3356 -22.2814 -22.2813 -13.9073  -6.5235  -5.6620  -5.4467
     0.8643   0.9662   1.1394   6.5140   7.6662   7.7478   7.9675   8.3028
     9.0205   9.1374   9.5411   9.6542  12.6486  13.9568  13.9658  14.8480

          k = 0.2458-0.2459 0.0820 (  6847 PWs)   bands (ev):

   -46.0426 -22.3106 -22.3063 -22.2814 -13.9169  -6.3128  -5.6633  -5.6121
     0.7279   0.8312   1.1568   6.9296   7.4119   7.6980   8.0122   8.3061
     8.8303   9.4482   9.5293   9.9571  13.2718  13.3962  13.6374  15.3411

          k = 0.4096-0.2459 0.0820 (  6833 PWs)   bands (ev):

   -46.0421 -22.3341 -22.3051 -22.2805 -13.8702  -6.3048  -5.6248  -5.5317
     0.7370   0.8850   1.0981   6.4404   7.0962   7.3183   7.7841   8.1416
     8.9106   9.2606   9.4398   9.9514  13.3616  13.9899  14.1198  15.4307

          k = 0.2458 0.4099 0.0820 (  6833 PWs)   bands (ev):

   -46.0421 -22.3300 -22.3093 -22.2805 -13.8700  -6.3087  -5.6329  -5.5188
     0.7391   0.8823   1.0984   6.4460   7.1101   7.3012   7.7795   8.1494
     8.9003   9.2609   9.4344   9.9521  13.3712  13.9853  14.1217  15.4329

          k = 0.4096-0.4099 0.0820 (  6854 PWs)   bands (ev):

   -46.0417 -22.3326 -22.3286 -22.2796 -13.8324  -6.0725  -5.6257  -5.5822
     0.6824   0.7321   1.0825   6.2725   6.6623   6.7142   7.8252   7.8895
     8.6331   9.4771   9.6145  10.2995  13.9977  14.0297  14.4141  15.6105

          k = 0.4096-0.2459 0.2459 (  6839 PWs)   bands (ev):

   -46.0417 -22.3328 -22.3043 -22.3038 -13.8358  -6.0782  -5.5675  -5.5467
     0.4599   0.6051   0.9903   6.4098   7.0902   7.3713   7.4325   8.0904
     8.2899   9.5690   9.8682   9.8790  13.8099  14.1874  14.2202  16.5004

          k = 0.4096-0.4099 0.2459 (  6851 PWs)   bands (ev):

   -46.0412 -22.3314 -22.3274 -22.3030 -13.8007  -5.8353  -5.5530  -5.5245
     0.3555   0.3847   0.6833   6.2606   6.6928   7.2794   7.4491   8.0496
     8.1200   9.7987   9.8897  10.2721  14.2827  14.2970  14.5107  16.8470

     highest occupied, lowest unoccupied level (ev):    10.3119   12.5515

!    total energy              =    -303.31799074 Ry
     Harris-Foulkes estimate   =    -303.31799074 Ry
     estimated scf accuracy    <          5.3E-14 Ry

     The total energy is the sum of the following terms:

     one-electron contribution =     -69.94818158 Ry
     hartree contribution      =      59.19824960 Ry
     xc contribution           =     -84.18452768 Ry
     ewald contribution        =    -208.38353108 Ry

     convergence has been achieved in  17 iterations

     Forces acting on atoms (cartesian axes, Ry/au):

     atom    1 type  3   force =    -0.00362400    0.00000000    0.00000000
     atom    2 type  2   force =    -0.00134391    0.00000000    0.00000000
     atom    3 type  1   force =     0.00495411    0.00000000    0.00000000
     atom    4 type  1   force =     0.00000690    0.00000000    0.00000000
     atom    5 type  1   force =     0.00000690    0.00000000    0.00000000

     Total force =     0.006284     Total SCF correction =     0.000000


     Computing stress (Cartesian axis) and pressure

          total   stress  (Ry/bohr**3)                   (kbar)     P=    0.34
   0.00000723   0.00000000   0.00000000          1.06      0.00      0.00
   0.00000000  -0.00000015   0.00000000          0.00     -0.02      0.00
   0.00000000   0.00000000  -0.00000015          0.00      0.00     -0.02


     number of scf cycles    =   3
     number of bfgs steps    =   2

     enthalpy old            =    -303.3178960652 Ry
     enthalpy new            =    -303.3179907394 Ry

     CASE: enthalpy_new < enthalpy_old

     new trust radius        =       0.0113704463 bohr
     new conv_thr            =            1.0E-14 Ry

     new unit-cell volume =    427.00527 a.u.^3 (    63.27565 Ang^3 )
     density =      6.11933 g/cm^3

CELL_PARAMETERS (alat=  7.40000000)
   1.018279449   0.000000000   0.000000000
   0.000000000   1.017268383   0.000000000
   0.000000000   0.000000000   1.017268383

ATOMIC_POSITIONS (crystal)
Ba      -0.002533245   0.000000000   0.000000000
Ti       0.490183119   0.500000000   0.500000000
O        0.002727238   0.500000000   0.500000000
O        0.499811444   0.000000000   0.500000000
O        0.499811444   0.500000000   0.000000000



     Writing output data file bto.save
     NEW-OLD atomic charge density approx. for the potential
     extrapolated charge   40.08923, renormalised to   40.00000

     total cpu time spent up to now is       29.5 secs

     per-process dynamical memory:    71.3 Mb

     Self-consistent Calculation

     iteration #  1     ecut=   100.00 Ry     beta=0.60
     Davidson diagonalization with overlap
     ethr =  1.00E-06,  avg # of iterations =  3.6

     total cpu time spent up to now is       30.2 secs

     total energy              =    -303.31706301 Ry
     Harris-Foulkes estimate   =    -303.18364537 Ry
     estimated scf accuracy    <       0.00078205 Ry

     iteration #  2     ecut=   100.00 Ry     beta=0.60
     Davidson diagonalization with overlap
     ethr =  1.96E-06,  avg # of iterations =  4.2

     total cpu time spent up to now is       30.8 secs

     total energy              =    -303.31779465 Ry
     Harris-Foulkes estimate   =    -303.31886287 Ry
     estimated scf accuracy    <       0.00338683 Ry

     iteration #  3     ecut=   100.00 Ry     beta=0.60
     Davidson diagonalization with overlap
     ethr =  1.96E-06,  avg # of iterations =  3.2

     total cpu time spent up to now is       31.3 secs

     total energy              =    -303.31810042 Ry
     Harris-Foulkes estimate   =    -303.31818350 Ry
     estimated scf accuracy    <       0.00036233 Ry

     iteration #  4     ecut=   100.00 Ry     beta=0.60
     Davidson diagonalization with overlap
     ethr =  9.06E-07,  avg # of iterations =  1.6

     total cpu time spent up to now is       31.6 secs

     total energy              =    -303.31803236 Ry
     Harris-Foulkes estimate   =    -303.31811871 Ry
     estimated scf accuracy    <       0.00018932 Ry

     iteration #  5     ecut=   100.00 Ry     beta=0.60
     Davidson diagonalization with overlap
     ethr =  4.73E-07,  avg # of iterations =  2.1

     total cpu time spent up to now is       32.0 secs

     total energy              =    -303.31806056 Ry
     Harris-Foulkes estimate   =    -303.31806299 Ry
     estimated scf accuracy    <       0.00000961 Ry

     iteration #  6     ecut=   100.00 Ry     beta=0.60
     Davidson diagonalization with overlap
     ethr =  2.40E-08,  avg # of iterations =  2.9

     total cpu time spent up to now is       32.5 secs

     total energy              =    -303.31806216 Ry
     Harris-Foulkes estimate   =    -303.31806245 Ry
     estimated scf accuracy    <       0.00000064 Ry

     iteration #  7     ecut=   100.00 Ry     beta=0.60
     Davidson diagonalization with overlap
     ethr =  1.60E-09,  avg # of iterations =  3.1

     total cpu time spent up to now is       32.9 secs

     total energy              =    -303.31806236 Ry
     Harris-Foulkes estimate   =    -303.31806238 Ry
     estimated scf accuracy    <       0.00000007 Ry

     iteration #  8     ecut=   100.00 Ry     beta=0.60
     Davidson diagonalization with overlap
     ethr =  1.69E-10,  avg # of iterations =  2.6

     total cpu time spent up to now is       33.4 secs

     total energy              =    -303.31806237 Ry
     Harris-Foulkes estimate   =    -303.31806237 Ry
     estimated scf accuracy    <       0.00000001 Ry

     iteration #  9     ecut=   100.00 Ry     beta=0.60
     Davidson diagonalization with overlap
     ethr =  2.51E-11,  avg # of iterations =  2.9

     total cpu time spent up to now is       33.8 secs

     total energy              =    -303.31806237 Ry
     Harris-Foulkes estimate   =    -303.31806237 Ry
     estimated scf accuracy    <          4.2E-09 Ry

     iteration # 10     ecut=   100.00 Ry     beta=0.60
     Davidson diagonalization with overlap
     ethr =  1.04E-11,  avg # of iterations =  2.0

     total cpu time spent up to now is       34.2 secs

          k = 0.0818 0.0819 0.0819     band energies (ev):

   -46.0819 -22.3262 -22.3204 -22.3202 -14.0566  -6.3892  -5.7273  -5.7164
     0.7284   0.7285   0.8535   7.8530   8.0440   8.0465   8.8754   8.8793
     9.2450   9.7974  10.1150  10.1203  12.5182  12.5681  12.5796  14.8107

          k = 0.0818 0.0819 0.2458     band energies (ev):

   -46.0814 -22.3442 -22.3252 -22.3193 -14.0029  -6.4345  -5.7107  -5.6370
     0.7765   0.7815   1.0234   7.1857   7.8184   7.9115   8.4616   8.4781
     9.1647   9.1835   9.8082   9.8648  12.5957  13.2533  13.2649  14.8176

          k = 0.0818 0.0819 0.4096     band energies (ev):

   -46.0810 -22.3680 -22.3243 -22.3183 -13.9477  -6.5527  -5.6965  -5.4627
     0.8262   0.9260   1.0941   6.4957   7.6428   7.7203   7.9344   8.2702
     8.9992   9.1030   9.4691   9.6235  12.6345  13.9144  13.9242  14.8104

          k = 0.0818 0.2458 0.2458     band energies (ev):

   -46.0810 -22.3434 -22.3426 -22.3243 -13.9575  -6.3432  -5.6825  -5.6429
     0.6872   0.7923   1.1139   6.9025   7.3945   7.6686   7.9838   8.2818
     8.7669   9.4146   9.5052   9.9311  13.2294  13.3606  13.5977  15.2964

          k = 0.0818 0.2458 0.4096     band energies (ev):

   -46.0805 -22.3665 -22.3418 -22.3234 -13.9111  -6.3369  -5.6562  -5.5479
     0.6978   0.8416   1.0557   6.4194   7.0912   7.2754   7.7566   8.1158
     8.8504   9.2297   9.3999   9.9312  13.3268  13.9499  14.0800  15.3806

          k = 0.0818 0.4096 0.4096     band energies (ev):

   -46.0800 -22.3651 -22.3649 -22.3225 -13.8737  -6.1084  -5.6450  -5.6070
     0.6397   0.6896   1.0412   6.2462   6.6672   6.6677   7.8058   7.8620
     8.5928   9.4318   9.5670  10.2819  13.9586  13.9927  14.3736  15.5462

          k = 0.2455 0.2458 0.2458     band energies (ev):

   -46.0805 -22.3476 -22.3422 -22.3415 -13.9180  -6.1882  -5.6508  -5.6394
     0.5554   0.5586   1.1622   6.7097   7.3560   7.3657   7.9022   8.1080
     8.1121   9.7078   9.7195   9.7445  13.6660  13.6979  13.7022  16.4846

          k = 0.2455 0.2458 0.4096     band energies (ev):

   -46.0800 -22.3652 -22.3464 -22.3407 -13.8773  -6.1103  -5.6034  -5.5617
     0.4260   0.5632   0.9494   6.3873   7.0748   7.3346   7.4066   8.0555
     8.2506   9.5269   9.8347   9.8582  13.7733  14.1480  14.1803  16.4492

          k = 0.2455 0.4096 0.4096     band energies (ev):

   -46.0796 -22.3640 -22.3638 -22.3454 -13.8426  -5.8720  -5.5725  -5.5525
     0.3196   0.3451   0.6460   6.2340   6.6713   7.2535   7.4202   8.0180
     8.0848   9.7571   9.8456  10.2554  14.2445  14.2584  14.4690  16.7775

          k = 0.4092 0.4096 0.4096     band energies (ev):

   -46.0791 -22.3681 -22.3628 -22.3626 -13.8110  -5.6101  -5.5072  -5.4960
     0.0658   0.0702   0.2193   6.0822   6.6740   6.6774   7.8529   8.0962
     8.0978  10.1758  10.1855  10.2595  14.5698  14.5720  14.5773  17.5967

          k = 0.2455-0.0819 0.0819     band energies (ev):

   -46.0814 -22.3499 -22.3194 -22.3192 -14.0033  -6.4305  -5.7025  -5.6506
     0.7762   0.7820   1.0240   7.1811   7.8174   7.9119   8.4666   8.4691
     9.1656   9.1973   9.8360   9.8490  12.5749  13.2646  13.2706  14.8094

          k = 0.4092-0.0819 0.0819     band energies (ev):

   -46.0810 -22.3735 -22.3184 -22.3183 -13.9486  -6.5470  -5.6885  -5.4795
     0.8248   0.9258   1.0975   6.4885   7.6398   7.7213   7.9381   8.2725
     8.9921   9.1058   9.5098   9.6241  12.6137  13.9162  13.9253  14.8042

          k = 0.2455-0.2458 0.0819     band energies (ev):

   -46.0810 -22.3487 -22.3430 -22.3184 -13.9579  -6.3386  -5.6920  -5.6399
     0.6893   0.7921   1.1145   6.9026   7.3824   7.6703   7.9819   8.2779
     8.8004   9.4177   9.4976   9.9224  13.2351  13.3592  13.5994  15.2960

          k = 0.4092-0.2458 0.0819     band energies (ev):

   -46.0805 -22.3720 -22.3418 -22.3175 -13.9118  -6.3293  -5.6520  -5.5635
     0.6982   0.8455   1.0563   6.4154   7.0705   7.2905   7.7580   8.1112
     8.8804   9.2303   9.4103   9.9178  13.3243  13.9493  14.0787  15.3852

          k = 0.2455 0.4096 0.0819     band energies (ev):

   -46.0805 -22.3665 -22.3475 -22.3174 -13.9114  -6.3338  -5.6619  -5.5474
     0.7008   0.8419   1.0566   6.4202   7.0832   7.2735   7.7515   8.1216
     8.8672   9.2305   9.4032   9.9183  13.3344  13.9457  14.0821  15.3874

          k = 0.4092-0.4096 0.0819     band energies (ev):

   -46.0800 -22.3705 -22.3651 -22.3166 -13.8744  -6.0981  -5.6556  -5.6109
     0.6439   0.6935   1.0410   6.2472   6.6364   6.6904   7.7991   7.8626
     8.6012   9.4450   9.5817  10.2653  13.9575  13.9893  14.3723  15.5641

[...]
     total energy              =    -303.31820944 Ry
     Harris-Foulkes estimate   =    -303.36236296 Ry
     estimated scf accuracy    <       0.16881828 Ry

     iteration #  4     ecut=   100.00 Ry     beta=0.60
     Davidson diagonalization with overlap
     ethr =  4.22E-04,  avg # of iterations =  1.3

     total cpu time spent up to now is      113.6 secs

     total energy              =    -303.30912047 Ry
     Harris-Foulkes estimate   =    -303.32693267 Ry
     estimated scf accuracy    <       0.05976646 Ry

     iteration #  5     ecut=   100.00 Ry     beta=0.60
     Davidson diagonalization with overlap
     ethr =  1.49E-04,  avg # of iterations =  3.0

     total cpu time spent up to now is      114.1 secs

     total energy              =    -303.31908128 Ry
     Harris-Foulkes estimate   =    -303.31983516 Ry
     estimated scf accuracy    <       0.00213987 Ry

     iteration #  6     ecut=   100.00 Ry     beta=0.60
     Davidson diagonalization with overlap
     ethr =  5.35E-06,  avg # of iterations =  3.7

     total cpu time spent up to now is      114.6 secs

     total energy              =    -303.31969255 Ry
     Harris-Foulkes estimate   =    -303.31980493 Ry
     estimated scf accuracy    <       0.00058261 Ry

     iteration #  7     ecut=   100.00 Ry     beta=0.60
     Davidson diagonalization with overlap
     ethr =  1.46E-06,  avg # of iterations =  1.7

     total cpu time spent up to now is      115.0 secs

     total energy              =    -303.31966008 Ry
     Harris-Foulkes estimate   =    -303.31973119 Ry
     estimated scf accuracy    <       0.00018993 Ry

     iteration #  8     ecut=   100.00 Ry     beta=0.60
     Davidson diagonalization with overlap
     ethr =  4.75E-07,  avg # of iterations =  2.7

     total cpu time spent up to now is      115.4 secs

     total energy              =    -303.31969867 Ry
     Harris-Foulkes estimate   =    -303.31969923 Ry
     estimated scf accuracy    <       0.00000415 Ry

     iteration #  9     ecut=   100.00 Ry     beta=0.60
     Davidson diagonalization with overlap
     ethr =  1.04E-08,  avg # of iterations =  3.2

     total cpu time spent up to now is      115.9 secs

     total energy              =    -303.31969932 Ry
     Harris-Foulkes estimate   =    -303.31970016 Ry
     estimated scf accuracy    <       0.00000195 Ry

     iteration # 10     ecut=   100.00 Ry     beta=0.60
     Davidson diagonalization with overlap
     ethr =  4.87E-09,  avg # of iterations =  2.7

     total cpu time spent up to now is      116.4 secs

          k = 0.0797 0.0824 0.0824     band energies (ev):

   -46.1306 -22.4601 -22.3681 -22.3679 -14.3282  -6.5650  -5.9558  -5.8550
     0.4592   0.4787   0.5922   7.6581   7.8098   7.8516   8.4819   8.5038
     8.9489   9.3094   9.7550   9.8227  12.4947  12.8228  12.8399  14.8902

          k = 0.0797 0.0824 0.2472     band energies (ev):

   -46.1300 -22.4590 -22.3934 -22.3670 -14.2742  -6.6066  -5.9229  -5.7893
     0.4949   0.5251   0.7442   7.0138   7.5898   7.7319   8.1327   8.2143
     8.7430   8.9017   9.4843   9.5693  12.8371  13.2081  13.2472  14.9235

          k = 0.0797 0.0824 0.4120     band energies (ev):

   -46.1295 -22.4579 -22.4186 -22.3660 -14.2188  -6.7207  -5.8964  -5.6268
     0.5501   0.6563   0.7876   6.3534   7.4483   7.5525   7.6912   8.0342
     8.6695   8.7496   9.1026   9.3013  12.8795  13.8399  13.8935  14.8817

          k = 0.0797 0.2472 0.2472     band energies (ev):

   -46.1295 -22.4580 -22.3925 -22.3918 -14.2283  -6.5243  -5.8483  -5.8207
     0.3928   0.5115   0.8201   6.7331   7.2078   7.4832   7.7763   8.0122
     8.2246   9.1494   9.3159   9.7969  13.1369  13.3706  13.5719  15.2258

          k = 0.0797 0.2472 0.4120     band energies (ev):

   -46.1290 -22.4569 -22.4171 -22.3909 -14.1813  -6.5178  -5.8334  -5.7038
     0.3982   0.5294   0.7495   6.2665   6.9140   7.1242   7.5304   7.8332
     8.3859   8.9957   9.2062   9.8170  13.2687  13.9148  14.0373  15.1855

          k = 0.0797 0.4120 0.4120     band energies (ev):

   -46.1285 -22.4559 -22.4157 -22.4155 -14.1431  -6.3111  -5.7832  -5.7628
     0.3044   0.3598   0.7278   6.0713   6.5025   6.5676   7.5342   7.5825
     8.3367   9.1920   9.3158  10.1890  13.8875  13.9766  14.3352  15.1067

          k = 0.2391 0.2472 0.2472     band energies (ev):

   -46.1292 -22.4750 -22.3916 -22.3910 -14.1981  -6.3762  -5.8932  -5.7848
     0.2730   0.3284   0.8678   6.5531   7.1062   7.1813   7.7553   7.8874
     7.9200   9.3929   9.4062   9.6489  13.5418  13.6251  13.6860  16.2531

          k = 0.2391 0.2472 0.4120     band energies (ev):

   -46.1287 -22.4737 -22.4161 -22.3901 -14.1560  -6.3172  -5.8196  -5.7138
     0.1826   0.2782   0.6689   6.2284   6.9059   7.1275   7.3141   7.8136
     7.9918   9.2567   9.5064   9.7517  13.6819  14.0618  14.1218  16.1979

          k = 0.2391 0.4120 0.4120     band energies (ev):

   -46.1282 -22.4726 -22.4148 -22.4146 -14.1198  -6.1178  -5.7281  -5.7225
     0.0497   0.0568   0.3926   6.0491   6.5732   7.0434   7.3089   7.7744
     7.8366   9.4545   9.5466  10.1646  14.1481  14.1767  14.4054  16.1899

          k = 0.3985 0.4120 0.4120     band energies (ev):

   -46.1279 -22.4891 -22.4139 -22.4138 -14.0963  -5.8938  -5.7139  -5.6587
    -0.1925  -0.1491   0.0248   5.9375   6.5793   6.6502   7.6225   7.8553
     7.8934   9.8266   9.8719  10.1382  14.4053  14.4082  14.4890  16.8700

          k = 0.2391-0.0824 0.0824     band energies (ev):

   -46.1302 -22.4776 -22.3674 -22.3672 -14.2860  -6.5968  -5.9188  -5.8440
     0.5114   0.5317   0.7466   6.9982   7.6020   7.7079   8.1571   8.2076
     8.8854   8.9859   9.5569   9.6766  12.5317  13.3211  13.3517  14.8841

          k = 0.3985-0.0824 0.0824     band energies (ev):

   -46.1299 -22.4949 -22.3667 -22.3665 -14.2430  -6.6915  -5.8328  -5.8051
     0.5445   0.6508   0.8490   6.3714   7.4158   7.5486   7.7856   8.0361
     8.7413   8.8638   9.3752   9.5491  12.5661  13.8159  13.8607  14.8815

          k = 0.2391-0.2472 0.0824     band energies (ev):

   -46.1297 -22.4762 -22.3925 -22.3663 -14.2393  -6.5107  -5.9439  -5.7932
     0.4361   0.5323   0.8291   6.7697   7.0762   7.5362   7.7982   8.0203
     8.6089   9.1032   9.3022   9.6318  13.2090  13.3962  13.5291  15.3571

          k = 0.3985-0.2472 0.0824     band energies (ev):

   -46.1294 -22.4933 -22.3915 -22.3657 -14.2039  -6.4781  -5.9012  -5.7877
     0.4246   0.6105   0.7847   6.3332   6.7674   7.2827   7.5870   7.8586
     8.7406   8.9985   9.2987   9.6021  13.2693  13.8599  13.9250  15.4320

          k = 0.2391 0.4120 0.0824     band energies (ev):

   -46.1292 -22.4748 -22.4174 -22.3654 -14.1916  -6.5205  -5.9015  -5.7008
     0.4578   0.5562   0.7852   6.2845   6.8651   7.1748   7.5364   7.9450
     8.5206   9.0163   9.1447   9.6049  13.3971  13.8775  14.0072  15.4326

          k = 0.3985-0.4120 0.0824     band energies (ev):

   -46.1289 -22.4917 -22.4163 -22.3647 -14.1639  -6.2726  -5.9571  -5.7655
     0.3789   0.4686   0.7718   6.1562   6.4308   6.6937   7.4914   7.7423
     8.4449   9.2127   9.3608   9.9207  13.8864  13.9228  14.2125  15.5831

          k = 0.3985-0.2472 0.2472     band energies (ev):

   -46.1289 -22.4919 -22.3907 -22.3902 -14.1675  -6.2593  -5.9011  -5.7479
     0.1540   0.3552   0.6866   6.3183   6.7585   7.1674   7.3675   7.8892
     8.0833   9.4716   9.5160   9.5559  13.6912  13.9716  14.0387  16.4308

          k = 0.3985-0.4120 0.2472     band energies (ev):

   -46.1284 -22.4904 -22.4150 -22.3894 -14.1304  -6.0600  -5.8681  -5.7120
     0.0571   0.1343   0.4109   6.1126   6.6165   7.0522   7.2572   7.8111
     7.9117   9.5064   9.7240   9.8863  14.0781  14.1675  14.3156  16.6486

     highest occupied, lowest unoccupied level (ev):    10.1890   12.4947

!    total energy              =    -303.31969965 Ry
     Harris-Foulkes estimate   =    -303.31969966 Ry
     estimated scf accuracy    <       0.00000001 Ry

     The total energy is the sum of the following terms:

     one-electron contribution =     -72.92341601 Ry
     hartree contribution      =      60.34883231 Ry
     xc contribution           =     -84.18217685 Ry
     ewald contribution        =    -206.56255733 Ry
     scf correction            =      -0.00038177 Ry

     iteration # 11     ecut=   100.00 Ry     beta=0.60
     Davidson diagonalization with overlap
     ethr =  2.58E-11,  avg # of iterations =  3.9

     total cpu time spent up to now is      117.0 secs

     total energy              =    -303.31969968 Ry
     Harris-Foulkes estimate   =    -303.31969968 Ry
     estimated scf accuracy    <          1.2E-09 Ry

     iteration # 12     ecut=   100.00 Ry     beta=0.60
     Davidson diagonalization with overlap
     ethr =  3.10E-12,  avg # of iterations =  2.2

     total cpu time spent up to now is      117.4 secs

     total energy              =    -303.31969968 Ry
     Harris-Foulkes estimate   =    -303.31969968 Ry
     estimated scf accuracy    <          1.7E-10 Ry

     iteration # 13     ecut=   100.00 Ry     beta=0.60
     Davidson diagonalization with overlap
     ethr =  4.16E-13,  avg # of iterations =  2.6

     total cpu time spent up to now is      117.9 secs

     total energy              =    -303.31969968 Ry
     Harris-Foulkes estimate   =    -303.31969968 Ry
     estimated scf accuracy    <          4.4E-12 Ry

     iteration # 14     ecut=   100.00 Ry     beta=0.60
     Davidson diagonalization with overlap
     ethr =  1.00E-13,  avg # of iterations =  1.1

     total cpu time spent up to now is      118.3 secs

     total energy              =    -303.31969968 Ry
     Harris-Foulkes estimate   =    -303.31969968 Ry
     estimated scf accuracy    <          1.4E-13 Ry

     iteration # 15     ecut=   100.00 Ry     beta=0.60
     Davidson diagonalization with overlap
     ethr =  1.00E-13,  avg # of iterations =  1.0

     total cpu time spent up to now is      118.6 secs

     total energy              =    -303.31969968 Ry
     Harris-Foulkes estimate   =    -303.31969968 Ry
     estimated scf accuracy    <          2.6E-14 Ry

     iteration # 16     ecut=   100.00 Ry     beta=0.60
     Davidson diagonalization with overlap
     ethr =  1.00E-13,  avg # of iterations =  1.0

     total cpu time spent up to now is      119.0 secs

     total energy              =    -303.31969968 Ry
     Harris-Foulkes estimate   =    -303.31969968 Ry
     estimated scf accuracy    <          2.6E-14 Ry

     iteration # 17     ecut=   100.00 Ry     beta=0.60
     Davidson diagonalization with overlap
     ethr =  1.00E-13,  avg # of iterations =  1.0

     total cpu time spent up to now is      119.4 secs

     End of self-consistent calculation

          k = 0.0797 0.0824 0.0824 (  7301 PWs)   bands (ev):

   -46.1305 -22.4600 -22.3681 -22.3679 -14.3281  -6.5651  -5.9559  -5.8551
     0.4593   0.4787   0.5923   7.6581   7.8097   7.8516   8.4818   8.5037
     8.9488   9.3094   9.7549   9.8226  12.4948  12.8228  12.8399  14.8903

          k = 0.0797 0.0824 0.2472 (  7306 PWs)   bands (ev):

   -46.1299 -22.4589 -22.3933 -22.3669 -14.2741  -6.6067  -5.9230  -5.7894
     0.4950   0.5252   0.7442   7.0137   7.5897   7.7318   8.1326   8.2142
     8.7430   8.9016   9.4842   9.5692  12.8371  13.2081  13.2473  14.9235

          k = 0.0797 0.0824 0.4120 (  7321 PWs)   bands (ev):

   -46.1294 -22.4578 -22.4185 -22.3659 -14.2187  -6.7208  -5.8966  -5.6269
     0.5502   0.6564   0.7876   6.3534   7.4482   7.5524   7.6911   8.0342
     8.6694   8.7495   9.1025   9.3013  12.8795  13.8399  13.8936  14.8817

          k = 0.0797 0.2472 0.2472 (  7324 PWs)   bands (ev):

   -46.1294 -22.4579 -22.3924 -22.3917 -14.2282  -6.5243  -5.8484  -5.8208
     0.3928   0.5115   0.8201   6.7331   7.2078   7.4831   7.7762   8.0121
     8.2245   9.1493   9.3158   9.7968  13.1370  13.3706  13.5720  15.2258

          k = 0.0797 0.2472 0.4120 (  7337 PWs)   bands (ev):

   -46.1289 -22.4569 -22.4170 -22.3908 -14.1812  -6.5178  -5.8335  -5.7039
     0.3983   0.5295   0.7496   6.2664   6.9139   7.1241   7.5304   7.8331
     8.3858   8.9956   9.2061   9.8169  13.2687  13.9148  14.0373  15.1855

          k = 0.0797 0.4120 0.4120 (  7324 PWs)   bands (ev):

   -46.1284 -22.4558 -22.4156 -22.4154 -14.1430  -6.3112  -5.7833  -5.7629
     0.3045   0.3599   0.7279   6.0713   6.5024   6.5675   7.5341   7.5824
     8.3366   9.1919   9.3157  10.1889  13.8875  13.9766  14.3352  15.1067

          k = 0.2391 0.2472 0.2472 (  7330 PWs)   bands (ev):

   -46.1291 -22.4749 -22.3915 -22.3909 -14.1980  -6.3763  -5.8933  -5.7849
     0.2730   0.3285   0.8678   6.5531   7.1061   7.1813   7.7553   7.8873
     7.9199   9.3928   9.4061   9.6488  13.5418  13.6252  13.6860  16.2531

          k = 0.2391 0.2472 0.4120 (  7328 PWs)   bands (ev):

   -46.1286 -22.4737 -22.4160 -22.3900 -14.1559  -6.3173  -5.8197  -5.7139
     0.1827   0.2783   0.6689   6.2284   6.9058   7.1275   7.3140   7.8136
     7.9917   9.2566   9.5063   9.7516  13.6819  14.0618  14.1218  16.1979

          k = 0.2391 0.4120 0.4120 (  7332 PWs)   bands (ev):

   -46.1281 -22.4725 -22.4147 -22.4145 -14.1197  -6.1179  -5.7282  -5.7226
     0.0497   0.0569   0.3927   6.0491   6.5732   7.0434   7.3088   7.7743
     7.8366   9.4543   9.5464  10.1645  14.1481  14.1767  14.4054  16.1899

          k = 0.3985 0.4120 0.4120 (  7317 PWs)   bands (ev):

   -46.1278 -22.4891 -22.4138 -22.4137 -14.0962  -5.8939  -5.7140  -5.6588
    -0.1925  -0.1490   0.0248   5.9375   6.5793   6.6502   7.6224   7.8553
     7.8934   9.8265   9.8718  10.1381  14.4053  14.4082  14.4890  16.8700

          k = 0.2391-0.0824 0.0824 (  7302 PWs)   bands (ev):

   -46.1301 -22.4775 -22.3673 -22.3672 -14.2859  -6.5969  -5.9189  -5.8441
     0.5115   0.5318   0.7467   6.9982   7.6019   7.7078   8.1570   8.2075
     8.8853   8.9858   9.5568   9.6765  12.5317  13.3212  13.3518  14.8841

          k = 0.3985-0.0824 0.0824 (  7306 PWs)   bands (ev):

   -46.1298 -22.4948 -22.3666 -22.3665 -14.2429  -6.6915  -5.8330  -5.8052
     0.5446   0.6509   0.8491   6.3714   7.4157   7.5486   7.7855   8.0360
     8.7412   8.8637   9.3751   9.5490  12.5661  13.8159  13.8607  14.8815

          k = 0.2391-0.2472 0.0824 (  7308 PWs)   bands (ev):

   -46.1296 -22.4762 -22.3924 -22.3663 -14.2393  -6.5108  -5.9440  -5.7933
     0.4361   0.5324   0.8292   6.7697   7.0761   7.5361   7.7981   8.0202
     8.6089   9.1031   9.3021   9.6317  13.2090  13.3962  13.5291  15.3571

          k = 0.3985-0.2472 0.0824 (  7313 PWs)   bands (ev):

   -46.1293 -22.4933 -22.3915 -22.3656 -14.2038  -6.4782  -5.9013  -5.7878
     0.4246   0.6105   0.7847   6.3332   6.7674   7.2827   7.5870   7.8585
     8.7405   8.9985   9.2986   9.6020  13.2694  13.8599  13.9250  15.4320

          k = 0.2391 0.4120 0.0824 (  7321 PWs)   bands (ev):

   -46.1291 -22.4748 -22.4174 -22.3653 -14.1915  -6.5206  -5.9016  -5.7009
     0.4579   0.5562   0.7853   6.2845   6.8651   7.1747   7.5363   7.9450
     8.5205   9.0162   9.1446   9.6048  13.3972  13.8775  14.0073  15.4326

          k = 0.3985-0.4120 0.0824 (  7312 PWs)   bands (ev):

   -46.1288 -22.4916 -22.4162 -22.3647 -14.1639  -6.2727  -5.9572  -5.7656
     0.3790   0.4686   0.7718   6.1562   6.4307   6.6936   7.4913   7.7422
     8.4448   9.2126   9.3607   9.9205  13.8864  13.9229  14.2126  15.5831

          k = 0.3985-0.2472 0.2472 (  7317 PWs)   bands (ev):

   -46.1288 -22.4918 -22.3906 -22.3901 -14.1674  -6.2594  -5.9012  -5.7481
     0.1540   0.3552   0.6867   6.3183   6.7584   7.1674   7.3674   7.8891
     8.0832   9.4715   9.5159   9.5558  13.6912  13.9716  14.0387  16.4308

          k = 0.3985-0.4120 0.2472 (  7320 PWs)   bands (ev):

   -46.1283 -22.4904 -22.4150 -22.3893 -14.1303  -6.0601  -5.8682  -5.7121
     0.0572   0.1344   0.4109   6.1126   6.6165   7.0522   7.2572   7.8110
     7.9116   9.5063   9.7239   9.8862  14.0782  14.1676  14.3156  16.6486

     highest occupied, lowest unoccupied level (ev):    10.1889   12.4948

!    total energy              =    -303.31969968 Ry
     Harris-Foulkes estimate   =    -303.31969968 Ry
     estimated scf accuracy    <          4.5E-15 Ry

     The total energy is the sum of the following terms:

     one-electron contribution =     -72.92390673 Ry
     hartree contribution      =      60.34893884 Ry
     xc contribution           =     -84.18217447 Ry
     ewald contribution        =    -206.56255733 Ry

     convergence has been achieved in  17 iterations

     Forces acting on atoms (cartesian axes, Ry/au):

     atom    1 type  3   force =     0.00030561    0.00000000    0.00000000
     atom    2 type  2   force =    -0.00035970    0.00000000    0.00000000
     atom    3 type  1   force =     0.00004735    0.00000000    0.00000000
     atom    4 type  1   force =     0.00000337    0.00000000    0.00000000
     atom    5 type  1   force =     0.00000337    0.00000000    0.00000000

     Total force =     0.000474     Total SCF correction =     0.000000


     Computing stress (Cartesian axis) and pressure

          total   stress  (Ry/bohr**3)                   (kbar)     P=   -0.35
  -0.00000383   0.00000000   0.00000000         -0.56      0.00      0.00
   0.00000000  -0.00000164   0.00000000          0.00     -0.24      0.00
   0.00000000   0.00000000  -0.00000164          0.00      0.00     -0.24


     Writing output data file bto.save
 
     init_run     :      1.13s CPU      1.35s WALL (       2 calls)
     electrons    :     95.82s CPU     98.26s WALL (      15 calls)
     update_pot   :      5.55s CPU      6.11s WALL (      13 calls)
     forces       :      3.73s CPU      3.74s WALL (      15 calls)
     stress       :      8.16s CPU      8.19s WALL (      15 calls)

     Called by init_run:
     wfcinit      :      0.27s CPU      0.30s WALL (       2 calls)
     potinit      :      0.21s CPU      0.28s WALL (       2 calls)

     Called by electrons:
     c_bands      :     67.10s CPU     68.56s WALL (     217 calls)
     sum_band     :     18.70s CPU     19.00s WALL (     217 calls)
     v_of_rho     :      1.80s CPU      1.82s WALL (     231 calls)
     newd         :      8.09s CPU      8.14s WALL (     231 calls)
     mix_rho      :      0.29s CPU      0.30s WALL (     217 calls)

     Called by c_bands:
     init_us_2    :      0.93s CPU      0.96s WALL (    8388 calls)
     cegterg      :     62.86s CPU     64.17s WALL (    3906 calls)

     Called by sum_band:
     sum_band:bec :      0.02s CPU      0.06s WALL (    3906 calls)
     addusdens    :      9.38s CPU      9.41s WALL (     217 calls)

     Called by *egterg:
     h_psi        :     38.99s CPU     40.10s WALL (   14307 calls)
     s_psi        :      1.25s CPU      1.18s WALL (   14307 calls)
     g_psi        :      0.18s CPU      0.22s WALL (   10365 calls)
     cdiaghg      :     13.61s CPU     13.62s WALL (   14019 calls)

     Called by h_psi:
     h_psi:pot    :     38.91s CPU     39.89s WALL (   14307 calls)
     h_psi:calbec :      2.30s CPU      2.27s WALL (   14307 calls)
     vloc_psi     :     35.43s CPU     36.35s WALL (   14307 calls)
     add_vuspsi   :      1.17s CPU      1.23s WALL (   14307 calls)

     General routines
     calbec       :      3.34s CPU      3.27s WALL (   19563 calls)
     fft          :      2.00s CPU      2.06s WALL (    4028 calls)
     ffts         :      0.05s CPU      0.06s WALL (     448 calls)
     fftw         :     38.60s CPU     38.39s WALL (  581434 calls)
     interpolate  :      0.24s CPU      0.26s WALL (     448 calls)
     davcio       :      0.00s CPU      0.10s WALL (      36 calls)
 
     Parallel routines
     fft_scatter  :     23.25s CPU     21.66s WALL (  585910 calls)
 
     PWSCF        :  1m55.85s CPU     2m 0.16s WALL

 
   This run was terminated on:  14: 6:19   6Jan2018            

=------------------------------------------------------------------------------=
   JOB DONE.
=------------------------------------------------------------------------------=
