
     Program PHONON v.6.1 (svn rev. 13369) starts on 10Jan2018 at 11:41: 1 

     This program is part of the open-source Quantum ESPRESSO suite
     for quantum simulation of materials; please cite
         "P. Giannozzi et al., J. Phys.:Condens. Matter 21 395502 (2009);
          URL http://www.quantum-espresso.org", 
     in publications or presentations arising from this work. More details at
     http://www.quantum-espresso.org/quote

     Parallel version (MPI), running on    28 processors
     R & G space division:  proc/nbgrp/npool/nimage =      28

     Reading data from directory:
     ./bto.save

   Info: using nr1, nr2, nr3 values from input

   Info: using nr1, nr2, nr3 values from input

     IMPORTANT: XC functional enforced from input :
     Exchange-correlation      =  SLA  PW   PBE  PBE ( 1  4  3  4 0 0)
     Any further DFT definition will be discarded
     Please, verify this is what you really want

               file O.pbe-rrkjus.UPF: wavefunction(s)  2S renormalized
 
     Parallelization info
     --------------------
     sticks:   dense  smooth     PW     G-vecs:    dense   smooth      PW
     Min          63      31      9                 2089      739     115
     Max          64      32     10                 2094      746     118
     Sum        1781     885    261                58557    20775    3279
 


     Dynamical matrices for ( 4, 4, 4)  uniform grid of q-points
     (  18q-points):
       N         xq(1)         xq(2)         xq(3) 
       1   0.000000000   0.000000000   0.000000000
       2   0.000000000   0.000000000   0.241846804
       3   0.000000000   0.000000000  -0.483693608
       4   0.000000000   0.250000000   0.000000000
       5   0.000000000   0.250000000   0.241846804
       6   0.000000000   0.250000000  -0.483693608
       7   0.000000000  -0.500000000   0.000000000
       8   0.000000000  -0.500000000   0.241846804
       9   0.000000000  -0.500000000  -0.483693608
      10   0.250000000   0.250000000   0.000000000
      11   0.250000000   0.250000000   0.241846804
      12   0.250000000   0.250000000  -0.483693608
      13   0.250000000  -0.500000000   0.000000000
      14   0.250000000  -0.500000000   0.241846804
      15   0.250000000  -0.500000000  -0.483693608
      16  -0.500000000  -0.500000000   0.000000000
      17  -0.500000000  -0.500000000   0.241846804
      18  -0.500000000  -0.500000000  -0.483693608

     Calculation of q =    0.0000000   0.0000000   0.0000000

                                                                                

     bravais-lattice index     =            6
     lattice parameter (alat)  =       7.4843  a.u.
     unit-cell volume          =     433.3637 (a.u.)^3
     number of atoms/cell      =            5
     number of atomic types    =            3
     kinetic-energy cut-off    =      50.0000  Ry
     charge density cut-off    =     400.0000  Ry
     convergence threshold     =      1.0E-12
     beta                      =       0.7000
     number of iterations used =            4
     Exchange-correlation      =  SLA  PW   PBE  PBE ( 1  4  3  4 0 0)


     celldm(1)=    7.48430  celldm(2)=    0.00000  celldm(3)=    1.03371
     celldm(4)=    0.00000  celldm(5)=    0.00000  celldm(6)=    0.00000

     crystal axes: (cart. coord. in units of alat)
               a(1) = (  1.0000  0.0000  0.0000 )  
               a(2) = (  0.0000  1.0000  0.0000 )  
               a(3) = (  0.0000  0.0000  1.0337 )  

     reciprocal axes: (cart. coord. in units 2 pi/alat)
               b(1) = (  1.0000  0.0000  0.0000 )  
               b(2) = (  0.0000  1.0000  0.0000 )  
               b(3) = (  0.0000  0.0000  0.9674 )  


     Atoms inside the unit cell: 

     Cartesian axes

     site n.  atom      mass           positions (alat units)
        1     Ba 137.3300   tau(    1) = (    0.00000    0.00000    0.02409  )
        2     Ti  47.8800   tau(    2) = (    0.50000    0.50000    0.48394  )
        3     O   15.9900   tau(    3) = (    0.50000    0.50000    0.02259  )
        4     O   15.9900   tau(    4) = (    0.00000    0.50000    0.52890  )
        5     O   15.9900   tau(    5) = (    0.50000    0.00000    0.52890  )

     Computing dynamical matrix for 
                    q = (   0.0000000   0.0000000   0.0000000 )
 
      9 Sym.Ops. (with q -> -q+G )


     G cutoff =  567.5474  (   2091 G-vectors)     FFT grid: ( 48, 48, 50)
     G cutoff =  283.7737  (    741 G-vectors)  smooth grid: ( 36, 36, 36)
     number of k points=    18

     PseudoPot. # 1 for O  read from file:
     ../../PSP_DIR/O.pbe-rrkjus.UPF
     MD5 check sum: 390ba29e75625707450f3bd3f0eb6be9
     Pseudo is Ultrasoft, Zval =  6.0
     Generated by new atomic code, or converted to UPF format
     Using radial grid of 1269 points,  4 beta functions with: 
                l(1) =   0
                l(2) =   0
                l(3) =   1
                l(4) =   1
     Q(r) pseudized with 0 coefficients 


     PseudoPot. # 2 for Ti read from file:
     ../../PSP_DIR/Ti.pbe-sp-van_ak.UPF
     MD5 check sum: 8e4df49b7f0d34bbd5052bf3f5ea0213
     Pseudo is Ultrasoft, Zval = 12.0
     Generated by new atomic code, or converted to UPF format
     Using radial grid of  851 points,  6 beta functions with: 
                l(1) =   0
                l(2) =   0
                l(3) =   1
                l(4) =   1
                l(5) =   2
                l(6) =   2
     Q(r) pseudized with  8 coefficients,  rinner =    1.000   1.000   1.000
                                                       1.000   1.000

     PseudoPot. # 3 for Ba read from file:
     ../../PSP_DIR/Ba.pbe-nsp-van.UPF
     MD5 check sum: a011de417d3466d8e94df216395bc359
     Pseudo is Ultrasoft + core correction, Zval = 10.0
     Generated by new atomic code, or converted to UPF format
     Using radial grid of  907 points,  6 beta functions with: 
                l(1) =   0
                l(2) =   0
                l(3) =   1
                l(4) =   1
                l(5) =   2
                l(6) =   2
     Q(r) pseudized with  6 coefficients,  rinner =    1.200   1.200   1.200
                                                       1.200   1.200

     Mode symmetry, C_4v (4mm)  point group:


     Electric field:
     Dielectric constant
     Born effective charges in two ways 


     Atomic displacements:
     There are  10 irreducible representations

     Representation     1      1 modes -A_1  G_1 D_1  To be done

     Representation     2      1 modes -A_1  G_1 D_1  To be done

     Representation     3      1 modes -A_1  G_1 D_1  To be done

     Representation     4      1 modes -A_1  G_1 D_1  To be done

     Representation     5      1 modes -B_1  G_3 D_2  To be done

     Representation     6      2 modes -E    G_5 D_5  To be done

     Representation     7      2 modes -E    G_5 D_5  To be done

     Representation     8      2 modes -E    G_5 D_5  To be done

     Representation     9      2 modes -E    G_5 D_5  To be done

     Representation    10      2 modes -E    G_5 D_5  To be done



     Alpha used in Ewald sum =   2.8000
     PHONON       :     2.15s CPU         2.84s WALL


     Electric Fields Calculation

      iter #   1 total cpu time :    11.4 secs   av.it.:   9.9
      thresh= 1.000E-02 alpha_mix =  0.700 |ddv_scf|^2 =  1.449E-07

      iter #   2 total cpu time :    15.1 secs   av.it.:  18.6
      thresh= 3.807E-05 alpha_mix =  0.700 |ddv_scf|^2 =  5.530E-07

      iter #   3 total cpu time :    18.3 secs   av.it.:  13.8
      thresh= 7.436E-05 alpha_mix =  0.700 |ddv_scf|^2 =  1.337E-08

      iter #   4 total cpu time :    21.6 secs   av.it.:  16.7
      thresh= 1.156E-05 alpha_mix =  0.700 |ddv_scf|^2 =  5.294E-09

      iter #   5 total cpu time :    24.9 secs   av.it.:  15.7
      thresh= 7.276E-06 alpha_mix =  0.700 |ddv_scf|^2 =  1.470E-10

      iter #   6 total cpu time :    28.0 secs   av.it.:  18.0
      thresh= 1.212E-06 alpha_mix =  0.700 |ddv_scf|^2 =  1.151E-11

      iter #   7 total cpu time :    31.3 secs   av.it.:  18.3
      thresh= 3.393E-07 alpha_mix =  0.700 |ddv_scf|^2 =  1.591E-12

      iter #   8 total cpu time :    34.7 secs   av.it.:  18.4
      thresh= 1.261E-07 alpha_mix =  0.700 |ddv_scf|^2 =  2.865E-13

     End of electric fields calculation

          Dielectric constant in cartesian axis 

          (       6.226907374       0.000000000      -0.000000000 )
          (       0.000000000       6.226907374       0.000000000 )
          (       0.000000000       0.000000000       5.263718819 )

          Effective charges (d Force / dE) in cartesian axis

           atom      1   Ba 
      Ex  (        2.50591        0.00000       -0.00000 )
      Ey  (        0.00000        2.50591        0.00000 )
      Ez  (        0.00000        0.00000        2.57181 )
           atom      2   Ti 
      Ex  (        6.93993       -0.00000       -0.00000 )
      Ey  (       -0.00000        6.93993       -0.00000 )
      Ez  (        0.00000        0.00000        5.22703 )
           atom      3   O  
      Ex  (       -2.00861        0.00000       -0.00000 )
      Ey  (        0.00000       -2.00861        0.00000 )
      Ez  (       -0.00000        0.00000       -4.21676 )
           atom      4   O  
      Ex  (       -5.54814        0.00000        0.00000 )
      Ey  (        0.00000       -2.13956        0.00000 )
      Ez  (        0.00000        0.00000       -1.91679 )
           atom      5   O  
      Ex  (       -2.13956        0.00000        0.00000 )
      Ey  (        0.00000       -5.54814        0.00000 )
      Ez  (       -0.00000        0.00000       -1.91679 )


     Representation #  1 mode #   1

     Self-consistent Calculation

      iter #   1 total cpu time :    39.3 secs   av.it.:  10.1
      thresh= 1.000E-02 alpha_mix =  0.700 |ddv_scf|^2 =  1.082E-05

      iter #   2 total cpu time :    40.8 secs   av.it.:  16.8
      thresh= 3.290E-04 alpha_mix =  0.700 |ddv_scf|^2 =  5.180E-06

      iter #   3 total cpu time :    41.7 secs   av.it.:  16.7
      thresh= 2.276E-04 alpha_mix =  0.700 |ddv_scf|^2 =  1.435E-06

      iter #   4 total cpu time :    42.6 secs   av.it.:  15.6
      thresh= 1.198E-04 alpha_mix =  0.700 |ddv_scf|^2 =  7.635E-09

      iter #   5 total cpu time :    43.6 secs   av.it.:  17.1
      thresh= 8.738E-06 alpha_mix =  0.700 |ddv_scf|^2 =  1.229E-09

      iter #   6 total cpu time :    45.1 secs   av.it.:  17.4
      thresh= 3.506E-06 alpha_mix =  0.700 |ddv_scf|^2 =  2.292E-09

      iter #   7 total cpu time :    46.3 secs   av.it.:  15.9
      thresh= 4.787E-06 alpha_mix =  0.700 |ddv_scf|^2 =  1.925E-11

      iter #   8 total cpu time :    47.3 secs   av.it.:  16.6
      thresh= 4.387E-07 alpha_mix =  0.700 |ddv_scf|^2 =  4.253E-12

      iter #   9 total cpu time :    48.2 secs   av.it.:  17.1
      thresh= 2.062E-07 alpha_mix =  0.700 |ddv_scf|^2 =  2.011E-12

      iter #  10 total cpu time :    49.1 secs   av.it.:  16.3
      thresh= 1.418E-07 alpha_mix =  0.700 |ddv_scf|^2 =  5.713E-13

     End of self-consistent calculation

     Convergence has been achieved 


     Representation #  2 mode #   2

     Self-consistent Calculation

      iter #   1 total cpu time :    50.5 secs   av.it.:   9.1
      thresh= 1.000E-02 alpha_mix =  0.700 |ddv_scf|^2 =  3.553E-06

      iter #   2 total cpu time :    51.6 secs   av.it.:  17.3
      thresh= 1.885E-04 alpha_mix =  0.700 |ddv_scf|^2 =  3.778E-06

      iter #   3 total cpu time :    52.7 secs   av.it.:  16.8
      thresh= 1.944E-04 alpha_mix =  0.700 |ddv_scf|^2 =  1.745E-06

      iter #   4 total cpu time :    53.6 secs   av.it.:  16.1
      thresh= 1.321E-04 alpha_mix =  0.700 |ddv_scf|^2 =  1.045E-08

      iter #   5 total cpu time :    54.5 secs   av.it.:  17.3
      thresh= 1.022E-05 alpha_mix =  0.700 |ddv_scf|^2 =  5.662E-09

      iter #   6 total cpu time :    55.5 secs   av.it.:  16.0
      thresh= 7.525E-06 alpha_mix =  0.700 |ddv_scf|^2 =  7.416E-11

      iter #   7 total cpu time :    57.0 secs   av.it.:  16.6
      thresh= 8.611E-07 alpha_mix =  0.700 |ddv_scf|^2 =  9.190E-12

      iter #   8 total cpu time :    58.0 secs   av.it.:  16.7
      thresh= 3.031E-07 alpha_mix =  0.700 |ddv_scf|^2 =  1.058E-12

      iter #   9 total cpu time :    59.0 secs   av.it.:  16.9
      thresh= 1.029E-07 alpha_mix =  0.700 |ddv_scf|^2 =  2.746E-13

     End of self-consistent calculation

     Convergence has been achieved 


     Representation #  3 mode #   3

     Self-consistent Calculation

      iter #   1 total cpu time :    60.0 secs   av.it.:   7.9
      thresh= 1.000E-02 alpha_mix =  0.700 |ddv_scf|^2 =  1.699E-06

      iter #   2 total cpu time :    60.9 secs   av.it.:  16.4
      thresh= 1.303E-04 alpha_mix =  0.700 |ddv_scf|^2 =  5.576E-07

      iter #   3 total cpu time :    61.8 secs   av.it.:  17.1
      thresh= 7.467E-05 alpha_mix =  0.700 |ddv_scf|^2 =  2.631E-07

      iter #   4 total cpu time :    63.1 secs   av.it.:  16.3
      thresh= 5.129E-05 alpha_mix =  0.700 |ddv_scf|^2 =  8.279E-09

      iter #   5 total cpu time :    64.2 secs   av.it.:  16.9
      thresh= 9.099E-06 alpha_mix =  0.700 |ddv_scf|^2 =  9.129E-10

      iter #   6 total cpu time :    65.1 secs   av.it.:  16.4
      thresh= 3.021E-06 alpha_mix =  0.700 |ddv_scf|^2 =  1.907E-10

      iter #   7 total cpu time :    66.3 secs   av.it.:  16.5
      thresh= 1.381E-06 alpha_mix =  0.700 |ddv_scf|^2 =  1.045E-11

      iter #   8 total cpu time :    67.3 secs   av.it.:  17.1
      thresh= 3.233E-07 alpha_mix =  0.700 |ddv_scf|^2 =  8.026E-13

     End of self-consistent calculation

     Convergence has been achieved 


     Representation #  4 mode #   4

     Self-consistent Calculation

      iter #   1 total cpu time :    68.7 secs   av.it.:   8.9
      thresh= 1.000E-02 alpha_mix =  0.700 |ddv_scf|^2 =  4.054E-06

      iter #   2 total cpu time :    69.6 secs   av.it.:  16.7
      thresh= 2.014E-04 alpha_mix =  0.700 |ddv_scf|^2 =  1.409E-06

      iter #   3 total cpu time :    70.6 secs   av.it.:  17.3
      thresh= 1.187E-04 alpha_mix =  0.700 |ddv_scf|^2 =  8.843E-07

      iter #   4 total cpu time :    71.5 secs   av.it.:  15.9
      thresh= 9.404E-05 alpha_mix =  0.700 |ddv_scf|^2 =  1.120E-08

      iter #   5 total cpu time :    72.8 secs   av.it.:  16.7
      thresh= 1.058E-05 alpha_mix =  0.700 |ddv_scf|^2 =  1.698E-09

      iter #   6 total cpu time :    73.7 secs   av.it.:  15.4
      thresh= 4.120E-06 alpha_mix =  0.700 |ddv_scf|^2 =  6.622E-11

      iter #   7 total cpu time :    74.7 secs   av.it.:  16.6
      thresh= 8.137E-07 alpha_mix =  0.700 |ddv_scf|^2 =  9.435E-12

      iter #   8 total cpu time :    75.7 secs   av.it.:  16.7
      thresh= 3.072E-07 alpha_mix =  0.700 |ddv_scf|^2 =  1.187E-12

      iter #   9 total cpu time :    76.7 secs   av.it.:  17.2
      thresh= 1.090E-07 alpha_mix =  0.700 |ddv_scf|^2 =  2.972E-13

     End of self-consistent calculation

     Convergence has been achieved 


     Representation #  5 mode #   5

     Self-consistent Calculation

      iter #   1 total cpu time :    77.6 secs   av.it.:   8.4
      thresh= 1.000E-02 alpha_mix =  0.700 |ddv_scf|^2 =  1.262E-06

      iter #   2 total cpu time :    79.0 secs   av.it.:  15.8
      thresh= 1.124E-04 alpha_mix =  0.700 |ddv_scf|^2 =  1.206E-08

      iter #   3 total cpu time :    80.0 secs   av.it.:  17.1
      thresh= 1.098E-05 alpha_mix =  0.700 |ddv_scf|^2 =  2.064E-08

      iter #   4 total cpu time :    80.8 secs   av.it.:  15.2
      thresh= 1.437E-05 alpha_mix =  0.700 |ddv_scf|^2 =  7.777E-11

      iter #   5 total cpu time :    81.8 secs   av.it.:  14.1
      thresh= 8.819E-07 alpha_mix =  0.700 |ddv_scf|^2 =  3.955E-12

      iter #   6 total cpu time :    82.8 secs   av.it.:  15.4
      thresh= 1.989E-07 alpha_mix =  0.700 |ddv_scf|^2 =  7.317E-15

     End of self-consistent calculation

     Convergence has been achieved 


     Representation #  6 modes #   6  7

     Self-consistent Calculation

      iter #   1 total cpu time :    84.6 secs   av.it.:   9.4
      thresh= 1.000E-02 alpha_mix =  0.700 |ddv_scf|^2 =  1.020E-06

      iter #   2 total cpu time :    86.9 secs   av.it.:  18.3
      thresh= 1.010E-04 alpha_mix =  0.700 |ddv_scf|^2 =  1.960E-07

      iter #   3 total cpu time :    89.8 secs   av.it.:  17.8
      thresh= 4.427E-05 alpha_mix =  0.700 |ddv_scf|^2 =  9.637E-10

      iter #   4 total cpu time :    92.2 secs   av.it.:  17.6
      thresh= 3.104E-06 alpha_mix =  0.700 |ddv_scf|^2 =  1.202E-11

      iter #   5 total cpu time :    94.9 secs   av.it.:  17.8
      thresh= 3.467E-07 alpha_mix =  0.700 |ddv_scf|^2 =  6.596E-13

     End of self-consistent calculation

     Convergence has been achieved 


     Representation #  7 modes #   8  9

     Self-consistent Calculation

      iter #   1 total cpu time :    97.1 secs   av.it.:  10.2
      thresh= 1.000E-02 alpha_mix =  0.700 |ddv_scf|^2 =  2.455E-06

      iter #   2 total cpu time :    99.5 secs   av.it.:  18.3
      thresh= 1.567E-04 alpha_mix =  0.700 |ddv_scf|^2 =  6.371E-07

      iter #   3 total cpu time :   102.0 secs   av.it.:  17.6
      thresh= 7.982E-05 alpha_mix =  0.700 |ddv_scf|^2 =  1.628E-09

      iter #   4 total cpu time :   104.3 secs   av.it.:  18.5
      thresh= 4.035E-06 alpha_mix =  0.700 |ddv_scf|^2 =  8.509E-11

      iter #   5 total cpu time :   106.4 secs   av.it.:  17.3
      thresh= 9.225E-07 alpha_mix =  0.700 |ddv_scf|^2 =  7.592E-13

     End of self-consistent calculation

     Convergence has been achieved 


     Representation #  8 modes #  10 11

     Self-consistent Calculation

      iter #   1 total cpu time :   108.3 secs   av.it.:   7.9
      thresh= 1.000E-02 alpha_mix =  0.700 |ddv_scf|^2 =  3.441E-07

      iter #   2 total cpu time :   111.1 secs   av.it.:  17.8
      thresh= 5.866E-05 alpha_mix =  0.700 |ddv_scf|^2 =  6.752E-08

      iter #   3 total cpu time :   113.5 secs   av.it.:  17.5
      thresh= 2.598E-05 alpha_mix =  0.700 |ddv_scf|^2 =  6.821E-10

      iter #   4 total cpu time :   116.1 secs   av.it.:  18.0
      thresh= 2.612E-06 alpha_mix =  0.700 |ddv_scf|^2 =  3.157E-11

      iter #   5 total cpu time :   118.8 secs   av.it.:  18.1
      thresh= 5.619E-07 alpha_mix =  0.700 |ddv_scf|^2 =  6.727E-13

     End of self-consistent calculation

     Convergence has been achieved 


     Representation #  9 modes #  12 13

     Self-consistent Calculation

      iter #   1 total cpu time :   120.9 secs   av.it.:   8.5
      thresh= 1.000E-02 alpha_mix =  0.700 |ddv_scf|^2 =  5.939E-07

      iter #   2 total cpu time :   123.5 secs   av.it.:  18.2
      thresh= 7.707E-05 alpha_mix =  0.700 |ddv_scf|^2 =  7.956E-08

      iter #   3 total cpu time :   126.4 secs   av.it.:  17.8
      thresh= 2.821E-05 alpha_mix =  0.700 |ddv_scf|^2 =  1.420E-09

      iter #   4 total cpu time :   129.9 secs   av.it.:  17.8
      thresh= 3.768E-06 alpha_mix =  0.700 |ddv_scf|^2 =  1.045E-11

      iter #   5 total cpu time :   131.9 secs   av.it.:  17.5
      thresh= 3.232E-07 alpha_mix =  0.700 |ddv_scf|^2 =  5.932E-13

     End of self-consistent calculation

     Convergence has been achieved 


     Representation # 10 modes #  14 15

     Self-consistent Calculation

      iter #   1 total cpu time :   133.8 secs   av.it.:   8.6
      thresh= 1.000E-02 alpha_mix =  0.700 |ddv_scf|^2 =  2.841E-07

      iter #   2 total cpu time :   136.7 secs   av.it.:  18.3
      thresh= 5.330E-05 alpha_mix =  0.700 |ddv_scf|^2 =  5.899E-09

      iter #   3 total cpu time :   139.2 secs   av.it.:  18.4
      thresh= 7.681E-06 alpha_mix =  0.700 |ddv_scf|^2 =  3.800E-10

      iter #   4 total cpu time :   142.1 secs   av.it.:  17.4
      thresh= 1.949E-06 alpha_mix =  0.700 |ddv_scf|^2 =  1.197E-11

      iter #   5 total cpu time :   144.5 secs   av.it.:  17.6
      thresh= 3.460E-07 alpha_mix =  0.700 |ddv_scf|^2 =  1.108E-12

      iter #   6 total cpu time :   146.8 secs   av.it.:  17.6
      thresh= 1.053E-07 alpha_mix =  0.700 |ddv_scf|^2 =  2.501E-15

     End of self-consistent calculation

     Convergence has been achieved 
 
     Number of q in the star =    1
     List of q in the star:
          1   0.000000000   0.000000000   0.000000000

          Dielectric constant in cartesian axis 

          (       6.226907374       0.000000000      -0.000000000 )
          (       0.000000000       6.226907374       0.000000000 )
          (       0.000000000       0.000000000       5.263718819 )

          Effective charges (d Force / dE) in cartesian axis

           atom      1   Ba 
      Ex  (        2.50591        0.00000       -0.00000 )
      Ey  (        0.00000        2.50591        0.00000 )
      Ez  (        0.00000        0.00000        2.57181 )
           atom      2   Ti 
      Ex  (        6.93993       -0.00000       -0.00000 )
      Ey  (       -0.00000        6.93993       -0.00000 )
      Ez  (        0.00000        0.00000        5.22703 )
           atom      3   O  
      Ex  (       -2.00861        0.00000       -0.00000 )
      Ey  (        0.00000       -2.00861        0.00000 )
      Ez  (       -0.00000        0.00000       -4.21676 )
           atom      4   O  
      Ex  (       -5.54814        0.00000        0.00000 )
      Ey  (        0.00000       -2.13956        0.00000 )
      Ez  (        0.00000        0.00000       -1.91679 )
           atom      5   O  
      Ex  (       -2.13956        0.00000        0.00000 )
      Ey  (        0.00000       -5.54814        0.00000 )
      Ez  (       -0.00000        0.00000       -1.91679 )

          Effective charges (d P / du) in cartesian axis 

           atom      1   Ba 
      Px  (        2.75733        0.00000        0.00000 )
      Py  (        0.00000        2.75733        0.00000 )
      Pz  (        0.00000        0.00000        2.82186 )
           atom      2   Ti 
      Px  (        6.93350        0.00000        0.00000 )
      Py  (        0.00000        6.93350        0.00000 )
      Pz  (        0.00000        0.00000        5.22938 )
           atom      3   O  
      Px  (       -2.01515        0.00000        0.00000 )
      Py  (        0.00000       -2.01515        0.00000 )
      Pz  (        0.00000        0.00000       -4.21155 )
           atom      4   O  
      Px  (       -5.54859        0.00000        0.00000 )
      Py  (        0.00000       -2.14034        0.00000 )
      Pz  (       -0.00000        0.00000       -1.91953 )
           atom      5   O  
      Px  (       -2.14034        0.00000        0.00000 )
      Py  (        0.00000       -5.54859        0.00000 )
      Pz  (        0.00000        0.00000       -1.91953 )

     Diagonalizing the dynamical matrix

     q = (    0.000000000   0.000000000   0.000000000 ) 

 **************************************************************************
     freq (    1) =      -3.090880 [THz] =    -103.100675 [cm-1]
     freq (    2) =      -3.090880 [THz] =    -103.100675 [cm-1]
     freq (    3) =      -1.834116 [THz] =     -61.179519 [cm-1]
     freq (    4) =      -1.834116 [THz] =     -61.179519 [cm-1]
     freq (    5) =       0.507314 [THz] =      16.922159 [cm-1]
     freq (    6) =       3.861274 [THz] =     128.798228 [cm-1]
     freq (    7) =       3.974803 [THz] =     132.585146 [cm-1]
     freq (    8) =       3.974803 [THz] =     132.585146 [cm-1]
     freq (    9) =       7.851732 [THz] =     261.905582 [cm-1]
     freq (   10) =       8.607867 [THz] =     287.127529 [cm-1]
     freq (   11) =       8.607867 [THz] =     287.127529 [cm-1]
     freq (   12) =      10.181654 [THz] =     339.623428 [cm-1]
     freq (   13) =      13.969490 [THz] =     465.972045 [cm-1]
     freq (   14) =      13.969490 [THz] =     465.972045 [cm-1]
     freq (   15) =      16.525886 [THz] =     551.244218 [cm-1]
 **************************************************************************

     Mode symmetry, C_4v (4mm)  point group:

     freq (  1 -  2) =       -103.1  [cm-1]   --> E    G_5 D_5    I+R
     freq (  3 -  4) =        -61.2  [cm-1]   --> E    G_5 D_5    I+R
     freq (  5 -  5) =         16.9  [cm-1]   --> A_1  G_1 D_1    I+R
     freq (  6 -  6) =        128.8  [cm-1]   --> A_1  G_1 D_1    I+R
     freq (  7 -  8) =        132.6  [cm-1]   --> E    G_5 D_5    I+R
     freq (  9 -  9) =        261.9  [cm-1]   --> B_1  G_3 D_2    R  
     freq ( 10 - 11) =        287.1  [cm-1]   --> E    G_5 D_5    I+R
     freq ( 12 - 12) =        339.6  [cm-1]   --> A_1  G_1 D_1    I+R
     freq ( 13 - 14) =        466.0  [cm-1]   --> E    G_5 D_5    I+R
     freq ( 15 - 15) =        551.2  [cm-1]   --> A_1  G_1 D_1    I+R

     Calculation of q =    0.0000000   0.0000000   0.2418468

   Info: using nr1, nr2, nr3 values from input

   Info: using nr1, nr2, nr3 values from input
 
     Parallelization info
     --------------------
     sticks:   dense  smooth     PW     G-vecs:    dense   smooth      PW
     Min          63      31      9                 2089      739     123
     Max          64      32     10                 2094      746     126
     Sum        1781     885    277                58557    20775    3511
 


     bravais-lattice index     =            6
     lattice parameter (alat)  =       7.4843  a.u.
     unit-cell volume          =     433.3637 (a.u.)^3
     number of atoms/cell      =            5
     number of atomic types    =            3
     number of electrons       =        40.00
     number of Kohn-Sham states=           24
     kinetic-energy cutoff     =      50.0000  Ry
     charge density cutoff     =     400.0000  Ry
     Exchange-correlation      =  SLA  PW   PBE  PBE ( 1  4  3  4 0 0)

     celldm(1)=   7.484296  celldm(2)=   0.000000  celldm(3)=   1.033712
     celldm(4)=   0.000000  celldm(5)=   0.000000  celldm(6)=   0.000000

     crystal axes: (cart. coord. in units of alat)
               a(1) = (   1.000000   0.000000   0.000000 )  
               a(2) = (   0.000000   1.000000   0.000000 )  
               a(3) = (   0.000000   0.000000   1.033712 )  

     reciprocal axes: (cart. coord. in units 2 pi/alat)
               b(1) = (  1.000000  0.000000  0.000000 )  
               b(2) = (  0.000000  1.000000  0.000000 )  
               b(3) = (  0.000000  0.000000  0.967387 )  


     PseudoPot. # 1 for O  read from file:
     ../../PSP_DIR/O.pbe-rrkjus.UPF
     MD5 check sum: 390ba29e75625707450f3bd3f0eb6be9
     Pseudo is Ultrasoft, Zval =  6.0
     Generated by new atomic code, or converted to UPF format
     Using radial grid of 1269 points,  4 beta functions with: 
                l(1) =   0
                l(2) =   0
                l(3) =   1
                l(4) =   1
     Q(r) pseudized with 0 coefficients 


     PseudoPot. # 2 for Ti read from file:
     ../../PSP_DIR/Ti.pbe-sp-van_ak.UPF
     MD5 check sum: 8e4df49b7f0d34bbd5052bf3f5ea0213
     Pseudo is Ultrasoft, Zval = 12.0
     Generated by new atomic code, or converted to UPF format
     Using radial grid of  851 points,  6 beta functions with: 
                l(1) =   0
                l(2) =   0
                l(3) =   1
                l(4) =   1
                l(5) =   2
                l(6) =   2
     Q(r) pseudized with  8 coefficients,  rinner =    1.000   1.000   1.000
                                                       1.000   1.000

     PseudoPot. # 3 for Ba read from file:
     ../../PSP_DIR/Ba.pbe-nsp-van.UPF
     MD5 check sum: a011de417d3466d8e94df216395bc359
     Pseudo is Ultrasoft + core correction, Zval = 10.0
     Generated by new atomic code, or converted to UPF format
     Using radial grid of  907 points,  6 beta functions with: 
                l(1) =   0
                l(2) =   0
                l(3) =   1
                l(4) =   1
                l(5) =   2
                l(6) =   2
     Q(r) pseudized with  6 coefficients,  rinner =    1.200   1.200   1.200
                                                       1.200   1.200

     atomic species   valence    mass     pseudopotential
        O              6.00    15.99000     O ( 1.00)
        Ti            12.00    47.88000     Ti( 1.00)
        Ba            10.00   137.33000     Ba( 1.00)

      8 Sym. Ops. (no inversion) found



   Cartesian axes

     site n.     atom                  positions (alat units)
         1           Ba  tau(   1) = (   0.0000000   0.0000000   0.0240905  )
         2           Ti  tau(   2) = (   0.5000000   0.5000000   0.4839368  )
         3           O   tau(   3) = (   0.5000000   0.5000000   0.0225908  )
         4           O   tau(   4) = (   0.0000000   0.5000000   0.5288971  )
         5           O   tau(   5) = (   0.5000000   0.0000000   0.5288971  )

     number of k points=    72
                       cart. coord. in units 2pi/alat
        k(    1) = (   0.0833333   0.0833333   0.0806156), wk =   0.0370370
        k(    2) = (   0.0833333   0.0833333   0.3224624), wk =   0.0000000
        k(    3) = (   0.0833333   0.0833333   0.2418468), wk =   0.0370370
        k(    4) = (   0.0833333   0.0833333   0.4836936), wk =   0.0000000
        k(    5) = (   0.0833333   0.0833333   0.4030780), wk =   0.0370370
        k(    6) = (   0.0833333   0.0833333   0.6449248), wk =   0.0000000
        k(    7) = (   0.0833333   0.2500000   0.0806156), wk =   0.0740741
        k(    8) = (   0.0833333   0.2500000   0.3224624), wk =   0.0000000
        k(    9) = (   0.0833333   0.2500000   0.2418468), wk =   0.0740741
        k(   10) = (   0.0833333   0.2500000   0.4836936), wk =   0.0000000
        k(   11) = (   0.0833333   0.2500000   0.4030780), wk =   0.0740741
        k(   12) = (   0.0833333   0.2500000   0.6449248), wk =   0.0000000
        k(   13) = (   0.0833333   0.4166667   0.0806156), wk =   0.0740741
        k(   14) = (   0.0833333   0.4166667   0.3224624), wk =   0.0000000
        k(   15) = (   0.0833333   0.4166667   0.2418468), wk =   0.0740741
        k(   16) = (   0.0833333   0.4166667   0.4836936), wk =   0.0000000
        k(   17) = (   0.0833333   0.4166667   0.4030780), wk =   0.0740741
        k(   18) = (   0.0833333   0.4166667   0.6449248), wk =   0.0000000
        k(   19) = (   0.2500000   0.2500000   0.0806156), wk =   0.0370370
        k(   20) = (   0.2500000   0.2500000   0.3224624), wk =   0.0000000
        k(   21) = (   0.2500000   0.2500000   0.2418468), wk =   0.0370370
        k(   22) = (   0.2500000   0.2500000   0.4836936), wk =   0.0000000
        k(   23) = (   0.2500000   0.2500000   0.4030780), wk =   0.0370370
        k(   24) = (   0.2500000   0.2500000   0.6449248), wk =   0.0000000
        k(   25) = (   0.2500000   0.4166667   0.0806156), wk =   0.0740741
        k(   26) = (   0.2500000   0.4166667   0.3224624), wk =   0.0000000
        k(   27) = (   0.2500000   0.4166667   0.2418468), wk =   0.0740741
        k(   28) = (   0.2500000   0.4166667   0.4836936), wk =   0.0000000
        k(   29) = (   0.2500000   0.4166667   0.4030780), wk =   0.0740741
        k(   30) = (   0.2500000   0.4166667   0.6449248), wk =   0.0000000
        k(   31) = (   0.4166667   0.4166667   0.0806156), wk =   0.0370370
        k(   32) = (   0.4166667   0.4166667   0.3224624), wk =   0.0000000
        k(   33) = (   0.4166667   0.4166667   0.2418468), wk =   0.0370370
        k(   34) = (   0.4166667   0.4166667   0.4836936), wk =   0.0000000
        k(   35) = (   0.4166667   0.4166667   0.4030780), wk =   0.0370370
        k(   36) = (   0.4166667   0.4166667   0.6449248), wk =   0.0000000
        k(   37) = (  -0.0833333  -0.0833333  -0.0806156), wk =   0.0370370
        k(   38) = (  -0.0833333  -0.0833333   0.1612312), wk =   0.0000000
        k(   39) = (  -0.0833333  -0.0833333  -0.2418468), wk =   0.0370370
        k(   40) = (  -0.0833333  -0.0833333   0.0000000), wk =   0.0000000
        k(   41) = (  -0.0833333  -0.0833333  -0.4030780), wk =   0.0370370
        k(   42) = (  -0.0833333  -0.0833333  -0.1612312), wk =   0.0000000
        k(   43) = (  -0.0833333  -0.2500000  -0.0806156), wk =   0.0740741
        k(   44) = (  -0.0833333  -0.2500000   0.1612312), wk =   0.0000000
        k(   45) = (  -0.0833333  -0.2500000  -0.2418468), wk =   0.0740741
        k(   46) = (  -0.0833333  -0.2500000   0.0000000), wk =   0.0000000
        k(   47) = (  -0.0833333  -0.2500000  -0.4030780), wk =   0.0740741
        k(   48) = (  -0.0833333  -0.2500000  -0.1612312), wk =   0.0000000
        k(   49) = (  -0.0833333  -0.4166667  -0.0806156), wk =   0.0740741
        k(   50) = (  -0.0833333  -0.4166667   0.1612312), wk =   0.0000000
        k(   51) = (  -0.0833333  -0.4166667  -0.2418468), wk =   0.0740741
        k(   52) = (  -0.0833333  -0.4166667   0.0000000), wk =   0.0000000
        k(   53) = (  -0.0833333  -0.4166667  -0.4030780), wk =   0.0740741
        k(   54) = (  -0.0833333  -0.4166667  -0.1612312), wk =   0.0000000
        k(   55) = (  -0.2500000  -0.2500000  -0.0806156), wk =   0.0370370
        k(   56) = (  -0.2500000  -0.2500000   0.1612312), wk =   0.0000000
        k(   57) = (  -0.2500000  -0.2500000  -0.2418468), wk =   0.0370370
        k(   58) = (  -0.2500000  -0.2500000   0.0000000), wk =   0.0000000
        k(   59) = (  -0.2500000  -0.2500000  -0.4030780), wk =   0.0370370
        k(   60) = (  -0.2500000  -0.2500000  -0.1612312), wk =   0.0000000
        k(   61) = (  -0.2500000  -0.4166667  -0.0806156), wk =   0.0740741
        k(   62) = (  -0.2500000  -0.4166667   0.1612312), wk =   0.0000000
        k(   63) = (  -0.2500000  -0.4166667  -0.2418468), wk =   0.0740741
        k(   64) = (  -0.2500000  -0.4166667   0.0000000), wk =   0.0000000
        k(   65) = (  -0.2500000  -0.4166667  -0.4030780), wk =   0.0740741
        k(   66) = (  -0.2500000  -0.4166667  -0.1612312), wk =   0.0000000
        k(   67) = (  -0.4166667  -0.4166667  -0.0806156), wk =   0.0370370
        k(   68) = (  -0.4166667  -0.4166667   0.1612312), wk =   0.0000000
        k(   69) = (  -0.4166667  -0.4166667  -0.2418468), wk =   0.0370370
        k(   70) = (  -0.4166667  -0.4166667   0.0000000), wk =   0.0000000
        k(   71) = (  -0.4166667  -0.4166667  -0.4030780), wk =   0.0370370
        k(   72) = (  -0.4166667  -0.4166667  -0.1612312), wk =   0.0000000

     Dense  grid:    58557 G-vectors     FFT dimensions: (  48,  48,  50)

     Smooth grid:    20775 G-vectors     FFT dimensions: (  36,  36,  36)

     Estimated max dynamical RAM per process >       2.01MB

     Estimated total allocated dynamical RAM >      56.29MB

     The potential is recalculated from file :
     ./_ph0/bto.save/charge-density.dat

     Starting wfc are   35 atomic wfcs

     Band Structure Calculation
     Davidson diagonalization with overlap

     ethr =  2.50E-11,  avg # of iterations = 19.5

     total cpu time spent up to now is        6.1 secs

     End of band structure calculation

          k = 0.0833 0.0833 0.0806 (  2593 PWs)   bands (ev):

   -46.1255 -22.4521 -22.3616 -22.3614 -14.3617  -6.5624  -5.9602  -5.8304
     0.4186   0.4374   0.5551   7.6706   7.8338   7.8548   8.4568   8.5475
     8.9754   9.3767   9.7448   9.8318  12.4714  12.8012  12.8165  14.8879

          k = 0.0833 0.0833 0.3225 (  2587 PWs)   bands (ev):

   -46.1250 -22.4795 -22.3604 -22.3603 -14.2958  -6.6276  -5.8841  -5.8127
     0.4895   0.5577   0.7797   6.6460   7.4533   7.5723   8.0113   8.2042
     8.8208   8.9055   9.4617   9.5933  12.5235  13.5910  13.6335  14.8797

          k = 0.0833 0.0833 0.2418 (  2588 PWs)   bands (ev):

   -46.1251 -22.4695 -22.3609 -22.3607 -14.3202  -6.5820  -5.9377  -5.8192
     0.4703   0.4945   0.7112   7.0136   7.5875   7.6799   8.1894   8.2906
     8.9033   9.0066   9.5642   9.6752  12.5044  13.3041  13.3375  14.8812

          k = 0.0833 0.0833 0.4837 (  2596 PWs)   bands (ev):

   -46.1248 -22.4895 -22.3600 -22.3599 -14.2711  -6.6886  -5.8106  -5.8062
     0.5087   0.6351   0.8323   6.2897   7.3304   7.4679   7.8148   8.1318
     8.7312   8.8776   9.3356   9.5167  12.5425  13.8816  13.9263  14.8784

          k = 0.0833 0.0833 0.4031 (  2596 PWs)   bands (ev):

   -46.1248 -22.4868 -22.3601 -22.3600 -14.2778  -6.6711  -5.8319  -5.8080
     0.5035   0.6127   0.8201   6.3841   7.3618   7.4954   7.8689   8.1505
     8.7554   8.8785   9.3725   9.5367  12.5374  13.8033  13.8480  14.8788

          k = 0.0833 0.0833 0.6449 (  2587 PWs)   bands (ev):

   -46.1250 -22.4795 -22.3604 -22.3603 -14.2958  -6.6276  -5.8841  -5.8127
     0.4895   0.5577   0.7797   6.6460   7.4533   7.5723   8.0113   8.2042
     8.8208   8.9055   9.4617   9.5933  12.5235  13.5910  13.6335  14.8797

          k = 0.0833 0.2500 0.0806 (  2590 PWs)   bands (ev):

   -46.1249 -22.4509 -22.3871 -22.3604 -14.3082  -6.6100  -5.9218  -5.7627
     0.4636   0.4800   0.7111   7.0166   7.5932   7.7263   8.0910   8.2484
     8.7837   8.9537   9.4644   9.5754  12.8415  13.1902  13.2602  14.9312

          k = 0.0833 0.2500 0.3225 (  2600 PWs)   bands (ev):

   -46.1245 -22.4780 -22.3856 -22.3594 -14.2536  -6.4662  -5.9503  -5.7655
     0.3902   0.5284   0.7933   6.5332   6.8727   7.3775   7.6506   7.9919
     8.6741   9.0710   9.3150   9.6247  13.2373  13.6480  13.7497  15.4122

          k = 0.0833 0.2500 0.2418 (  2596 PWs)   bands (ev):

   -46.1246 -22.4681 -22.3861 -22.3598 -14.2738  -6.5026  -5.9551  -5.7682
     0.4010   0.4948   0.7983   6.7555   7.0899   7.5207   7.7861   8.0623
     8.6491   9.1065   9.3320   9.6179  13.2044  13.3786  13.5388  15.3543

          k = 0.0833 0.2500 0.4837 (  2598 PWs)   bands (ev):

   -46.1243 -22.4878 -22.3850 -22.3590 -14.2332  -6.4572  -5.9121  -5.7654
     0.3821   0.6233   0.7209   6.2507   6.7048   7.2698   7.5095   7.9385
     8.7917   8.9889   9.3015   9.5791  13.2609  13.9247  13.9954  15.4337

          k = 0.0833 0.2500 0.4031 (  2600 PWs)   bands (ev):

   -46.1243 -22.4852 -22.3852 -22.3591 -14.2387  -6.4569  -5.9262  -5.7646
     0.3843   0.5830   0.7555   6.3306   6.7462   7.2945   7.5483   7.9515
     8.7492   9.0147   9.3077   9.5972  13.2549  13.8497  13.9266  15.4300

          k = 0.0833 0.2500 0.6449 (  2600 PWs)   bands (ev):

   -46.1245 -22.4780 -22.3856 -22.3594 -14.2536  -6.4662  -5.9503  -5.7655
     0.3902   0.5284   0.7933   6.5332   6.8727   7.3775   7.6506   7.9919
     8.6741   9.0710   9.3150   9.6247  13.2373  13.6480  13.7497  15.4122

          k = 0.0833 0.4167 0.0806 (  2591 PWs)   bands (ev):

   -46.1244 -22.4498 -22.4124 -22.3594 -14.2533  -6.7254  -5.8942  -5.5982
     0.5279   0.6117   0.7535   6.3638   7.4360   7.5408   7.6673   7.9853
     8.6690   8.8867   9.0624   9.3150  12.8879  13.8448  13.9199  14.8909

          k = 0.0833 0.4167 0.3225 (  2584 PWs)   bands (ev):

   -46.1239 -22.4765 -22.4106 -22.3584 -14.2104  -6.3810  -5.9347  -5.7127
     0.3954   0.4663   0.7405   6.2302   6.5934   6.8686   7.4975   7.8544
     8.4867   9.1117   9.2952   9.8025  13.6794  13.8979  14.1364  15.5449

          k = 0.0833 0.4167 0.2418 (  2584 PWs)   bands (ev):

   -46.1241 -22.4667 -22.4113 -22.3588 -14.2263  -6.5203  -5.9055  -5.6738
     0.4361   0.5205   0.7477   6.2904   6.8536   7.1601   7.5209   7.9493
     8.5431   9.0279   9.1686   9.6065  13.3968  13.8785  14.0326  15.4309

          k = 0.0833 0.4167 0.4837 (  2588 PWs)   bands (ev):

   -46.1238 -22.4862 -22.4099 -22.3580 -14.1945  -6.1904  -6.0136  -5.7511
     0.3282   0.4567   0.7201   6.1061   6.3669   6.6424   7.4679   7.7423
     8.4176   9.3089   9.4020   9.9403  13.9131  13.9660  14.2745  15.5908

          k = 0.0833 0.4167 0.4031 (  2592 PWs)   bands (ev):

   -46.1238 -22.4836 -22.4101 -22.3581 -14.1988  -6.2538  -5.9807  -5.7405
     0.3479   0.4554   0.7272   6.1503   6.4229   6.6931   7.4769   7.7728
     8.4372   9.2390   9.3835   9.9087  13.8821  13.9158  14.2339  15.5831

          k = 0.0833 0.4167 0.6449 (  2584 PWs)   bands (ev):

   -46.1239 -22.4765 -22.4106 -22.3584 -14.2104  -6.3810  -5.9347  -5.7127
     0.3954   0.4663   0.7405   6.2302   6.5934   6.8686   7.4975   7.8544
     8.4867   9.1117   9.2952   9.8025  13.6794  13.8979  14.1364  15.5449

          k = 0.2500 0.2500 0.0806 (  2593 PWs)   bands (ev):

   -46.1244 -22.4499 -22.3862 -22.3853 -14.2630  -6.5345  -5.8389  -5.7915
     0.3395   0.4870   0.7814   6.7546   7.2084   7.4600   7.8083   8.1212
     8.1793   9.0857   9.3206   9.7992  13.1823  13.3879  13.5307  15.2542

          k = 0.2500 0.2500 0.3225 (  2594 PWs)   bands (ev):

   -46.1239 -22.4766 -22.3847 -22.3841 -14.2156  -6.2917  -5.9202  -5.7331
     0.1514   0.2960   0.7582   6.4631   6.8854   7.1520   7.4851   7.9741
     7.9968   9.4360   9.4835   9.6148  13.6434  13.8090  13.8636  16.4593

          k = 0.2500 0.2500 0.2418 (  2586 PWs)   bands (ev):

   -46.1241 -22.4669 -22.3853 -22.3845 -14.2331  -6.3770  -5.8956  -5.7548
     0.2201   0.3052   0.8331   6.5691   7.1158   7.1692   7.7088   7.9049
     8.0024   9.3556   9.4085   9.6752  13.5669  13.6279  13.6557  16.2730

          k = 0.2500 0.2500 0.4837 (  2584 PWs)   bands (ev):

   -46.1238 -22.4864 -22.3842 -22.3836 -14.1980  -6.2216  -5.9276  -5.7111
     0.0829   0.3845   0.5809   6.2452   6.7975   7.1390   7.2550   7.9614
     8.1388   9.4649   9.5138   9.5730  13.6945  14.0284  14.1012  16.4266

          k = 0.2500 0.2500 0.4031 (  2581 PWs)   bands (ev):

   -46.1238 -22.4838 -22.3843 -22.3837 -14.2027  -6.2380  -5.9283  -5.7170
     0.1013   0.3404   0.6492   6.3170   6.8002   7.1421   7.3210   7.9636
     8.0964   9.4627   9.5111   9.5815  13.6813  13.9655  14.0362  16.4363

          k = 0.2500 0.2500 0.6449 (  2594 PWs)   bands (ev):

   -46.1239 -22.4766 -22.3847 -22.3841 -14.2156  -6.2917  -5.9202  -5.7331
     0.1514   0.2960   0.7582   6.4631   6.8854   7.1520   7.4851   7.9741
     7.9968   9.4360   9.4835   9.6148  13.6434  13.8090  13.8636  16.4593

          k = 0.2500 0.4167 0.0806 (  2588 PWs)   bands (ev):

   -46.1239 -22.4488 -22.4108 -22.3844 -14.2167  -6.5291  -5.8198  -5.6734
     0.3530   0.4924   0.7070   6.2909   6.9381   7.1358   7.5684   7.8627
     8.3684   8.9615   9.1197   9.8458  13.3092  13.9441  14.0105  15.2279

          k = 0.2500 0.4167 0.3225 (  2576 PWs)   bands (ev):

   -46.1234 -22.4753 -22.4092 -22.3832 -14.1769  -6.1874  -5.8290  -5.6820
     0.0744   0.1350   0.4959   6.2168   6.7901   7.0468   7.2757   7.7919
     7.9475   9.3642   9.7181   9.7814  13.9162  14.1160  14.2245  16.5830

          k = 0.2500 0.4167 0.2418 (  2583 PWs)   bands (ev):

   -46.1236 -22.4656 -22.4098 -22.3836 -14.1916  -6.3254  -5.8110  -5.6823
     0.1497   0.2342   0.6259   6.2568   6.9221   7.1489   7.3152   7.7874
     8.0230   9.2123   9.4862   9.7899  13.6997  14.0605  14.1211  16.2235

          k = 0.2500 0.4167 0.4837 (  2586 PWs)   bands (ev):

   -46.1232 -22.4849 -22.4086 -22.3828 -14.1622  -5.9592  -5.9372  -5.6796
    -0.0201   0.1636   0.2647   6.0914   6.5744   7.1026   7.2315   7.8328
     7.8744   9.5616   9.7517   9.9305  14.1405  14.1687  14.3593  16.6642

          k = 0.2500 0.4167 0.4031 (  2578 PWs)   bands (ev):

   -46.1233 -22.4823 -22.4088 -22.3829 -14.1661  -6.0560  -5.8729  -5.6802
     0.0076   0.1263   0.3531   6.1390   6.6218   7.0742   7.2542   7.8113
     7.9018   9.5016   9.7587   9.8816  14.0790  14.1546  14.3199  16.6672

          k = 0.2500 0.4167 0.6449 (  2576 PWs)   bands (ev):

   -46.1234 -22.4753 -22.4092 -22.3832 -14.1769  -6.1874  -5.8290  -5.6820
     0.0744   0.1350   0.4959   6.2168   6.7901   7.0468   7.2757   7.7919
     7.9475   9.3642   9.7181   9.7814  13.9162  14.1160  14.2245  16.5830

          k = 0.4167 0.4167 0.0806 (  2577 PWs)   bands (ev):

   -46.1234 -22.4478 -22.4093 -22.4091 -14.1794  -6.3332  -5.7492  -5.7349
     0.2376   0.3031   0.7067   6.1060   6.5110   6.5810   7.6093   7.6934
     8.3288   9.0676   9.1840  10.2344  13.9320  14.0111  14.2935  15.1847

          k = 0.4167 0.4167 0.3225 (  2575 PWs)   bands (ev):

   -46.1229 -22.4740 -22.4079 -22.4078 -14.1429  -6.0185  -5.6856  -5.6489
    -0.1574  -0.1191   0.1575   6.0465   6.5896   6.8831   7.4069   7.8560
     7.8903   9.6282   9.6854  10.1994  14.3022  14.3069  14.4235  16.6887

          k = 0.4167 0.4167 0.2418 (  2580 PWs)   bands (ev):

   -46.1231 -22.4644 -22.4084 -22.4082 -14.1563  -6.1402  -5.6999  -5.6865
    -0.0164   0.0108   0.3642   6.0879   6.5863   7.0536   7.3054   7.8400
     7.8663   9.3914   9.4730  10.2130  14.1688  14.1923  14.3726  16.2419

          k = 0.4167 0.4167 0.4837 (  2562 PWs)   bands (ev):

   -46.1227 -22.4836 -22.4074 -22.4073 -14.1293  -5.8792  -5.6853  -5.6102
    -0.2952  -0.1943  -0.0859   5.9363   6.5860   6.5931   7.7301   7.8314
     7.9220   9.8855   9.9380  10.1749  14.4350  14.4432  14.4789  16.9303

          k = 0.4167 0.4167 0.4031 (  2566 PWs)   bands (ev):

   -46.1228 -22.4810 -22.4075 -22.4074 -14.1330  -5.9196  -5.6826  -5.6207
    -0.2586  -0.1857  -0.0107   5.9762   6.5921   6.6537   7.6380   7.8437
     7.9151   9.8151   9.8646  10.1844  14.3988  14.4041  14.4637  16.8915

          k = 0.4167 0.4167 0.6449 (  2575 PWs)   bands (ev):

   -46.1229 -22.4740 -22.4079 -22.4078 -14.1429  -6.0185  -5.6856  -5.6489
    -0.1574  -0.1191   0.1575   6.0465   6.5896   6.8831   7.4069   7.8560
     7.8903   9.6282   9.6854  10.1994  14.3022  14.3069  14.4235  16.6887

          k =-0.0833-0.0833-0.0806 (  2593 PWs)   bands (ev):

   -46.1255 -22.4521 -22.3616 -22.3614 -14.3617  -6.5624  -5.9602  -5.8304
     0.4186   0.4374   0.5551   7.6706   7.8338   7.8548   8.4568   8.5475
     8.9754   9.3767   9.7448   9.8318  12.4714  12.8012  12.8165  14.8879

          k =-0.0833-0.0833 0.1612 (  2593 PWs)   bands (ev):

   -46.1253 -22.4594 -22.3613 -22.3611 -14.3443  -6.5601  -5.9630  -5.8257
     0.4441   0.4513   0.6283   7.3923   7.7270   7.7848   8.3460   8.4112
     8.9650   9.1966   9.6555   9.7631  12.4852  13.0208  13.0334  14.8839

          k =-0.0833-0.0833-0.2418 (  2588 PWs)   bands (ev):

   -46.1251 -22.4695 -22.3609 -22.3607 -14.3202  -6.5820  -5.9377  -5.8192
     0.4703   0.4945   0.7112   7.0136   7.5875   7.6799   8.1894   8.2906
     8.9033   9.0066   9.5642   9.6752  12.5044  13.3041  13.3375  14.8812

          k =-0.0833-0.0833 0.0000 (  2586 PWs)   bands (ev):

   -46.1255 -22.4494 -22.3617 -22.3615 -14.3681  -6.5672  -5.9546  -5.8322
     0.4139   0.4324   0.5234   7.7638   7.8784   7.8819   8.5004   8.6197
     8.9604   9.4348   9.8005   9.8580  12.4665  12.7128  12.7426  14.7968

          k =-0.0833-0.0833-0.4031 (  2596 PWs)   bands (ev):

   -46.1248 -22.4868 -22.3601 -22.3600 -14.2778  -6.6711  -5.8319  -5.8080
     0.5035   0.6127   0.8201   6.3841   7.3618   7.4954   7.8689   8.1505
     8.7554   8.8785   9.3725   9.5367  12.5374  13.8033  13.8480  14.8788

          k =-0.0833-0.0833-0.1612 (  2593 PWs)   bands (ev):

   -46.1253 -22.4594 -22.3613 -22.3611 -14.3443  -6.5601  -5.9630  -5.8257
     0.4441   0.4513   0.6283   7.3923   7.7270   7.7848   8.3460   8.4112
     8.9650   9.1966   9.6555   9.7631  12.4852  13.0208  13.0334  14.8839

          k =-0.0833-0.2500-0.0806 (  2590 PWs)   bands (ev):

   -46.1249 -22.4509 -22.3871 -22.3604 -14.3082  -6.6100  -5.9218  -5.7627
     0.4636   0.4800   0.7111   7.0166   7.5932   7.7263   8.0910   8.2484
     8.7837   8.9537   9.4644   9.5754  12.8415  13.1902  13.2602  14.9312

          k =-0.0833-0.2500 0.1612 (  2590 PWs)   bands (ev):

   -46.1248 -22.4582 -22.3867 -22.3601 -14.2937  -6.5598  -5.9388  -5.7680
     0.4246   0.4821   0.7660   6.9180   7.3612   7.6591   7.9397   8.1542
     8.7181   9.0558   9.3937   9.5776  13.0523  13.2188  13.3648  15.1929

          k =-0.0833-0.2500-0.2418 (  2596 PWs)   bands (ev):

   -46.1246 -22.4681 -22.3861 -22.3598 -14.2738  -6.5026  -5.9551  -5.7682
     0.4010   0.4948   0.7983   6.7555   7.0899   7.5207   7.7861   8.0623
     8.6491   9.1065   9.3320   9.6179  13.2044  13.3786  13.5388  15.3543

          k =-0.0833-0.2500 0.0000 (  2586 PWs)   bands (ev):

   -46.1250 -22.4483 -22.3872 -22.3605 -14.3135  -6.6295  -5.9158  -5.7590
     0.4778   0.4923   0.6774   7.0505   7.6913   7.7377   8.1567   8.3117
     8.7605   8.9077   9.4939   9.6046  12.7586  13.1813  13.2267  14.7984

          k =-0.0833-0.2500-0.4031 (  2600 PWs)   bands (ev):

   -46.1243 -22.4852 -22.3852 -22.3591 -14.2387  -6.4569  -5.9262  -5.7646
     0.3843   0.5830   0.7555   6.3306   6.7462   7.2945   7.5483   7.9515
     8.7492   9.0147   9.3077   9.5972  13.2549  13.8497  13.9266  15.4300

          k =-0.0833-0.2500-0.1612 (  2590 PWs)   bands (ev):

   -46.1248 -22.4582 -22.3867 -22.3601 -14.2937  -6.5598  -5.9388  -5.7680
     0.4246   0.4821   0.7660   6.9180   7.3612   7.6591   7.9397   8.1542
     8.7181   9.0558   9.3937   9.5776  13.0523  13.2188  13.3648  15.1929

          k =-0.0833-0.4167-0.0806 (  2591 PWs)   bands (ev):

   -46.1244 -22.4498 -22.4124 -22.3594 -14.2533  -6.7254  -5.8942  -5.5982
     0.5279   0.6117   0.7535   6.3638   7.4360   7.5408   7.6673   7.9853
     8.6690   8.8867   9.0624   9.3150  12.8879  13.8448  13.9199  14.8909

          k =-0.0833-0.4167 0.1612 (  2589 PWs)   bands (ev):

   -46.1243 -22.4569 -22.4119 -22.3591 -14.2419  -6.6424  -5.8948  -5.6313
     0.4765   0.5880   0.7470   6.3333   7.1696   7.4333   7.5470   8.0016
     8.6107   8.9811   9.1241   9.3541  13.1080  13.8591  13.9584  15.1894

          k =-0.0833-0.4167-0.2418 (  2584 PWs)   bands (ev):

   -46.1241 -22.4667 -22.4113 -22.3588 -14.2263  -6.5203  -5.9055  -5.6738
     0.4361   0.5205   0.7477   6.2904   6.8536   7.1601   7.5209   7.9493
     8.5431   9.0279   9.1686   9.6065  13.3968  13.8785  14.0326  15.4309

          k =-0.0833-0.4167 0.0000 (  2587 PWs)   bands (ev):

   -46.1245 -22.4471 -22.4126 -22.3595 -14.2575  -6.7547  -5.8951  -5.5857
     0.5742   0.5873   0.7622   6.3757   7.5111   7.5389   7.8687   7.9138
     8.6235   8.8205   9.0505   9.3757  12.8044  13.8395  13.9083  14.7527

          k =-0.0833-0.4167-0.4031 (  2592 PWs)   bands (ev):

   -46.1238 -22.4836 -22.4101 -22.3581 -14.1988  -6.2538  -5.9807  -5.7405
     0.3479   0.4554   0.7272   6.1503   6.4229   6.6931   7.4769   7.7728
     8.4372   9.2390   9.3835   9.9087  13.8821  13.9158  14.2339  15.5831

          k =-0.0833-0.4167-0.1612 (  2589 PWs)   bands (ev):

   -46.1243 -22.4569 -22.4119 -22.3591 -14.2419  -6.6424  -5.8948  -5.6313
     0.4765   0.5880   0.7470   6.3333   7.1696   7.4333   7.5470   8.0016
     8.6107   8.9811   9.1241   9.3541  13.1080  13.8591  13.9584  15.1894

          k =-0.2500-0.2500-0.0806 (  2593 PWs)   bands (ev):

   -46.1244 -22.4499 -22.3862 -22.3853 -14.2630  -6.5345  -5.8389  -5.7915
     0.3395   0.4870   0.7814   6.7546   7.2084   7.4600   7.8083   8.1212
     8.1793   9.0857   9.3206   9.7992  13.1823  13.3879  13.5307  15.2542

          k =-0.2500-0.2500 0.1612 (  2583 PWs)   bands (ev):

   -46.1243 -22.4571 -22.3858 -22.3850 -14.2504  -6.4674  -5.8639  -5.7761
     0.2889   0.3743   0.8418   6.6643   7.1905   7.3310   7.8201   8.0108
     8.0551   9.2241   9.3229   9.7445  13.3661  13.4791  13.5687  15.7114

          k =-0.2500-0.2500-0.2418 (  2586 PWs)   bands (ev):

   -46.1241 -22.4669 -22.3853 -22.3845 -14.2331  -6.3770  -5.8956  -5.7548
     0.2201   0.3052   0.8331   6.5691   7.1158   7.1692   7.7088   7.9049
     8.0024   9.3556   9.4085   9.6752  13.5669  13.6279  13.6557  16.2730

          k =-0.2500-0.2500 0.0000 (  2598 PWs)   bands (ev):

   -46.1245 -22.4472 -22.3863 -22.3854 -14.2676  -6.5591  -5.8295  -5.7971
     0.3580   0.5750   0.7114   6.7928   7.2154   7.5211   7.7882   8.1556
     8.2158   9.0219   9.3574   9.8200  13.1089  13.3578  13.5177  15.0757

          k =-0.2500-0.2500-0.4031 (  2581 PWs)   bands (ev):

   -46.1238 -22.4838 -22.3843 -22.3837 -14.2027  -6.2380  -5.9283  -5.7170
     0.1013   0.3404   0.6492   6.3170   6.8002   7.1421   7.3210   7.9636
     8.0964   9.4627   9.5111   9.5815  13.6813  13.9655  14.0362  16.4363

          k =-0.2500-0.2500-0.1612 (  2583 PWs)   bands (ev):

   -46.1243 -22.4571 -22.3858 -22.3850 -14.2504  -6.4674  -5.8639  -5.7761
     0.2889   0.3743   0.8418   6.6643   7.1905   7.3310   7.8201   8.0108
     8.0551   9.2241   9.3229   9.7445  13.3661  13.4791  13.5687  15.7114

          k =-0.2500-0.4167-0.0806 (  2588 PWs)   bands (ev):

   -46.1239 -22.4488 -22.4108 -22.3844 -14.2167  -6.5291  -5.8198  -5.6734
     0.3530   0.4924   0.7070   6.2909   6.9381   7.1358   7.5684   7.8627
     8.3684   8.9615   9.1197   9.8458  13.3092  13.9441  14.0105  15.2279

          k =-0.2500-0.4167 0.1612 (  2588 PWs)   bands (ev):

   -46.1238 -22.4559 -22.4104 -22.3841 -14.2062  -6.4465  -5.8121  -5.6783
     0.2530   0.3641   0.7038   6.2762   6.9312   7.1656   7.5043   7.8101
     8.1775   9.1124   9.2045   9.8174  13.4803  13.9956  14.0492  15.6871

          k =-0.2500-0.4167-0.2418 (  2583 PWs)   bands (ev):

   -46.1236 -22.4656 -22.4098 -22.3836 -14.1916  -6.3254  -5.8110  -5.6823
     0.1497   0.2342   0.6259   6.2568   6.9221   7.1489   7.3152   7.7874
     8.0230   9.2123   9.4862   9.7899  13.6997  14.0605  14.1211  16.2235

          k =-0.2500-0.4167 0.0000 (  2590 PWs)   bands (ev):

   -46.1240 -22.4462 -22.4110 -22.3845 -14.2206  -6.5584  -5.8237  -5.6713
     0.3936   0.5782   0.6660   6.2974   6.9435   7.1236   7.5654   7.8964
     8.4275   8.8752   9.1537   9.8577  13.2418  13.9251  13.9977  15.0472

          k =-0.2500-0.4167-0.4031 (  2578 PWs)   bands (ev):

   -46.1233 -22.4823 -22.4088 -22.3829 -14.1661  -6.0560  -5.8729  -5.6802
     0.0076   0.1263   0.3531   6.1390   6.6218   7.0742   7.2542   7.8113
     7.9018   9.5016   9.7587   9.8816  14.0790  14.1546  14.3199  16.6672

          k =-0.2500-0.4167-0.1612 (  2588 PWs)   bands (ev):

   -46.1238 -22.4559 -22.4104 -22.3841 -14.2062  -6.4465  -5.8121  -5.6783
     0.2530   0.3641   0.7038   6.2762   6.9312   7.1656   7.5043   7.8101
     8.1775   9.1124   9.2045   9.8174  13.4803  13.9956  14.0492  15.6871

          k =-0.4167-0.4167-0.0806 (  2577 PWs)   bands (ev):

   -46.1234 -22.4478 -22.4093 -22.4091 -14.1794  -6.3332  -5.7492  -5.7349
     0.2376   0.3031   0.7067   6.1060   6.5110   6.5810   7.6093   7.6934
     8.3288   9.0676   9.1840  10.2344  13.9320  14.0111  14.2935  15.1847

          k =-0.4167-0.4167 0.1612 (  2576 PWs)   bands (ev):

   -46.1233 -22.4548 -22.4089 -22.4087 -14.1697  -6.2537  -5.7231  -5.7192
     0.1286   0.1695   0.5630   6.1027   6.5831   6.7493   7.5985   7.7657
     7.9960   9.1868   9.2938  10.2252  14.0359  14.0858  14.3257  15.6673

          k =-0.4167-0.4167-0.2418 (  2580 PWs)   bands (ev):

   -46.1231 -22.4644 -22.4084 -22.4082 -14.1563  -6.1402  -5.6999  -5.6865
    -0.0164   0.0108   0.3642   6.0879   6.5863   7.0536   7.3054   7.8400
     7.8663   9.3914   9.4730  10.2130  14.1688  14.1923  14.3726  16.2419

          k =-0.4167-0.4167 0.0000 (  2572 PWs)   bands (ev):

   -46.1234 -22.4452 -22.4095 -22.4092 -14.1830  -6.3616  -5.7586  -5.7409
     0.2781   0.3560   0.7592   6.1061   6.4224   6.5802   7.5867   7.6628
     8.4826   9.0336   9.1483  10.2379  13.8897  13.9842  14.2821  14.9957

          k =-0.4167-0.4167-0.4031 (  2566 PWs)   bands (ev):

   -46.1228 -22.4810 -22.4075 -22.4074 -14.1330  -5.9196  -5.6826  -5.6207
    -0.2586  -0.1857  -0.0107   5.9762   6.5921   6.6537   7.6380   7.8437
     7.9151   9.8151   9.8646  10.1844  14.3988  14.4041  14.4637  16.8915

          k =-0.4167-0.4167-0.1612 (  2576 PWs)   bands (ev):

   -46.1233 -22.4548 -22.4089 -22.4087 -14.1697  -6.2537  -5.7231  -5.7192
     0.1286   0.1695   0.5630   6.1027   6.5831   6.7493   7.5985   7.7657
     7.9960   9.1868   9.2938  10.2252  14.0359  14.0858  14.3257  15.6673

     highest occupied, lowest unoccupied level (ev):    10.2344   12.4714

     Writing output data file bto.save

                                                                                

     bravais-lattice index     =            6
     lattice parameter (alat)  =       7.4843  a.u.
     unit-cell volume          =     433.3637 (a.u.)^3
     number of atoms/cell      =            5
     number of atomic types    =            3
     kinetic-energy cut-off    =      50.0000  Ry
     charge density cut-off    =     400.0000  Ry
     convergence threshold     =      1.0E-12
     beta                      =       0.7000
     number of iterations used =            4
     Exchange-correlation      =  SLA  PW   PBE  PBE ( 1  4  3  4 0 0)


     celldm(1)=    7.48430  celldm(2)=    0.00000  celldm(3)=    1.03371
     celldm(4)=    0.00000  celldm(5)=    0.00000  celldm(6)=    0.00000

     crystal axes: (cart. coord. in units of alat)
               a(1) = (  1.0000  0.0000  0.0000 )  
               a(2) = (  0.0000  1.0000  0.0000 )  
               a(3) = (  0.0000  0.0000  1.0337 )  

     reciprocal axes: (cart. coord. in units 2 pi/alat)
               b(1) = (  1.0000  0.0000  0.0000 )  
               b(2) = (  0.0000  1.0000  0.0000 )  
               b(3) = (  0.0000  0.0000  0.9674 )  


     Atoms inside the unit cell: 

     Cartesian axes

     site n.  atom      mass           positions (alat units)
        1     Ba 137.3300   tau(    1) = (    0.00000    0.00000    0.02409  )
        2     Ti  47.8800   tau(    2) = (    0.50000    0.50000    0.48394  )
        3     O   15.9900   tau(    3) = (    0.50000    0.50000    0.02259  )
        4     O   15.9900   tau(    4) = (    0.00000    0.50000    0.52890  )
        5     O   15.9900   tau(    5) = (    0.50000    0.00000    0.52890  )

     Computing dynamical matrix for 
                    q = (   0.0000000   0.0000000   0.2418468 )
 
      8 Sym.Ops. (no q -> -q+G )


     G cutoff =  567.5474  (   2091 G-vectors)     FFT grid: ( 48, 48, 50)
     G cutoff =  283.7737  (    741 G-vectors)  smooth grid: ( 36, 36, 36)
     number of k points=    72

     PseudoPot. # 1 for O  read from file:
     ../../PSP_DIR/O.pbe-rrkjus.UPF
     MD5 check sum: 390ba29e75625707450f3bd3f0eb6be9
     Pseudo is Ultrasoft, Zval =  6.0
     Generated by new atomic code, or converted to UPF format
     Using radial grid of 1269 points,  4 beta functions with: 
                l(1) =   0
                l(2) =   0
                l(3) =   1
                l(4) =   1
     Q(r) pseudized with 0 coefficients 


     PseudoPot. # 2 for Ti read from file:
     ../../PSP_DIR/Ti.pbe-sp-van_ak.UPF
     MD5 check sum: 8e4df49b7f0d34bbd5052bf3f5ea0213
     Pseudo is Ultrasoft, Zval = 12.0
     Generated by new atomic code, or converted to UPF format
     Using radial grid of  851 points,  6 beta functions with: 
                l(1) =   0
                l(2) =   0
                l(3) =   1
                l(4) =   1
                l(5) =   2
                l(6) =   2
     Q(r) pseudized with  8 coefficients,  rinner =    1.000   1.000   1.000
                                                       1.000   1.000

     PseudoPot. # 3 for Ba read from file:
     ../../PSP_DIR/Ba.pbe-nsp-van.UPF
     MD5 check sum: a011de417d3466d8e94df216395bc359
     Pseudo is Ultrasoft + core correction, Zval = 10.0
     Generated by new atomic code, or converted to UPF format
     Using radial grid of  907 points,  6 beta functions with: 
                l(1) =   0
                l(2) =   0
                l(3) =   1
                l(4) =   1
                l(5) =   2
                l(6) =   2
     Q(r) pseudized with  6 coefficients,  rinner =    1.200   1.200   1.200
                                                       1.200   1.200

     Mode symmetry, C_4v (4mm)  point group:


     Atomic displacements:
     There are  10 irreducible representations

     Representation     1      1 modes -A_1  G_1 D_1  To be done

     Representation     2      1 modes -A_1  G_1 D_1  To be done

     Representation     3      1 modes -A_1  G_1 D_1  To be done

     Representation     4      1 modes -A_1  G_1 D_1  To be done

     Representation     5      1 modes -B_1  G_3 D_2  To be done

     Representation     6      2 modes -E    G_5 D_5  To be done

     Representation     7      2 modes -E    G_5 D_5  To be done

     Representation     8      2 modes -E    G_5 D_5  To be done

     Representation     9      2 modes -E    G_5 D_5  To be done

     Representation    10      2 modes -E    G_5 D_5  To be done



     Alpha used in Ewald sum =   2.8000
     PHONON       :  2m25.51s CPU     2m35.03s WALL



     Representation #  1 mode #   1

     Self-consistent Calculation

      iter #   1 total cpu time :   156.8 secs   av.it.:   9.4
      thresh= 1.000E-02 alpha_mix =  0.700 |ddv_scf|^2 =  2.262E-04

      iter #   2 total cpu time :   158.5 secs   av.it.:  15.2
      thresh= 1.504E-03 alpha_mix =  0.700 |ddv_scf|^2 =  2.441E-03

      iter #   3 total cpu time :   160.2 secs   av.it.:  12.6
      thresh= 4.940E-03 alpha_mix =  0.700 |ddv_scf|^2 =  1.043E-05

      iter #   4 total cpu time :   162.6 secs   av.it.:  14.1
      thresh= 3.230E-04 alpha_mix =  0.700 |ddv_scf|^2 =  4.014E-07

      iter #   5 total cpu time :   164.9 secs   av.it.:  14.9
      thresh= 6.336E-05 alpha_mix =  0.700 |ddv_scf|^2 =  4.056E-08

      iter #   6 total cpu time :   166.9 secs   av.it.:  16.2
      thresh= 2.014E-05 alpha_mix =  0.700 |ddv_scf|^2 =  6.937E-09

      iter #   7 total cpu time :   169.2 secs   av.it.:  16.1
      thresh= 8.329E-06 alpha_mix =  0.700 |ddv_scf|^2 =  1.592E-09

      iter #   8 total cpu time :   171.2 secs   av.it.:  15.3
      thresh= 3.989E-06 alpha_mix =  0.700 |ddv_scf|^2 =  1.243E-09

      iter #   9 total cpu time :   173.3 secs   av.it.:  15.3
      thresh= 3.525E-06 alpha_mix =  0.700 |ddv_scf|^2 =  6.289E-11

      iter #  10 total cpu time :   175.5 secs   av.it.:  15.6
      thresh= 7.930E-07 alpha_mix =  0.700 |ddv_scf|^2 =  1.186E-10

      iter #  11 total cpu time :   177.5 secs   av.it.:  14.1
      thresh= 1.089E-06 alpha_mix =  0.700 |ddv_scf|^2 =  4.570E-13

     End of self-consistent calculation

     Convergence has been achieved 


     Representation #  2 mode #   2

     Self-consistent Calculation

      iter #   1 total cpu time :   179.2 secs   av.it.:   9.5
      thresh= 1.000E-02 alpha_mix =  0.700 |ddv_scf|^2 =  3.065E-04

      iter #   2 total cpu time :   181.7 secs   av.it.:  14.7
      thresh= 1.751E-03 alpha_mix =  0.700 |ddv_scf|^2 =  2.581E-03

      iter #   3 total cpu time :   183.9 secs   av.it.:  12.4
      thresh= 5.081E-03 alpha_mix =  0.700 |ddv_scf|^2 =  2.831E-05

      iter #   4 total cpu time :   186.3 secs   av.it.:  14.3
      thresh= 5.320E-04 alpha_mix =  0.700 |ddv_scf|^2 =  1.585E-06

      iter #   5 total cpu time :   188.1 secs   av.it.:  15.4
      thresh= 1.259E-04 alpha_mix =  0.700 |ddv_scf|^2 =  1.253E-07

      iter #   6 total cpu time :   190.2 secs   av.it.:  16.3
      thresh= 3.540E-05 alpha_mix =  0.700 |ddv_scf|^2 =  2.631E-08

      iter #   7 total cpu time :   192.5 secs   av.it.:  15.4
      thresh= 1.622E-05 alpha_mix =  0.700 |ddv_scf|^2 =  2.373E-10

      iter #   8 total cpu time :   194.6 secs   av.it.:  16.4
      thresh= 1.541E-06 alpha_mix =  0.700 |ddv_scf|^2 =  3.364E-10

      iter #   9 total cpu time :   196.6 secs   av.it.:  14.1
      thresh= 1.834E-06 alpha_mix =  0.700 |ddv_scf|^2 =  5.087E-11

      iter #  10 total cpu time :   198.5 secs   av.it.:  14.4
      thresh= 7.133E-07 alpha_mix =  0.700 |ddv_scf|^2 =  3.101E-12

      iter #  11 total cpu time :   200.7 secs   av.it.:  16.4
      thresh= 1.761E-07 alpha_mix =  0.700 |ddv_scf|^2 =  4.019E-12

      iter #  12 total cpu time :   203.2 secs   av.it.:  16.1
      thresh= 2.005E-07 alpha_mix =  0.700 |ddv_scf|^2 =  1.251E-12

      iter #  13 total cpu time :   205.6 secs   av.it.:  16.1
      thresh= 1.119E-07 alpha_mix =  0.700 |ddv_scf|^2 =  3.411E-14

     End of self-consistent calculation

     Convergence has been achieved 


     Representation #  3 mode #   3

     Self-consistent Calculation

      iter #   1 total cpu time :   207.6 secs   av.it.:  11.0
      thresh= 1.000E-02 alpha_mix =  0.700 |ddv_scf|^2 =  6.025E-04

      iter #   2 total cpu time :   209.9 secs   av.it.:  15.3
      thresh= 2.454E-03 alpha_mix =  0.700 |ddv_scf|^2 =  6.250E-03

      iter #   3 total cpu time :   211.8 secs   av.it.:  12.3
      thresh= 7.906E-03 alpha_mix =  0.700 |ddv_scf|^2 =  3.053E-05

      iter #   4 total cpu time :   213.8 secs   av.it.:  14.8
      thresh= 5.525E-04 alpha_mix =  0.700 |ddv_scf|^2 =  1.796E-06

      iter #   5 total cpu time :   216.1 secs   av.it.:  16.0
      thresh= 1.340E-04 alpha_mix =  0.700 |ddv_scf|^2 =  2.516E-07

      iter #   6 total cpu time :   218.7 secs   av.it.:  16.4
      thresh= 5.016E-05 alpha_mix =  0.700 |ddv_scf|^2 =  4.071E-08

      iter #   7 total cpu time :   221.3 secs   av.it.:  15.9
      thresh= 2.018E-05 alpha_mix =  0.700 |ddv_scf|^2 =  7.619E-09

      iter #   8 total cpu time :   223.4 secs   av.it.:  13.9
      thresh= 8.729E-06 alpha_mix =  0.700 |ddv_scf|^2 =  2.071E-10

      iter #   9 total cpu time :   225.7 secs   av.it.:  16.2
      thresh= 1.439E-06 alpha_mix =  0.700 |ddv_scf|^2 =  9.583E-10

      iter #  10 total cpu time :   227.8 secs   av.it.:  13.9
      thresh= 3.096E-06 alpha_mix =  0.700 |ddv_scf|^2 =  3.417E-12

      iter #  11 total cpu time :   230.2 secs   av.it.:  16.5
      thresh= 1.849E-07 alpha_mix =  0.700 |ddv_scf|^2 =  9.312E-13

     End of self-consistent calculation

     Convergence has been achieved 


     Representation #  4 mode #   4

     Self-consistent Calculation

      iter #   1 total cpu time :   232.3 secs   av.it.:   9.4
      thresh= 1.000E-02 alpha_mix =  0.700 |ddv_scf|^2 =  3.419E-04

      iter #   2 total cpu time :   234.4 secs   av.it.:  14.9
      thresh= 1.849E-03 alpha_mix =  0.700 |ddv_scf|^2 =  3.210E-03

      iter #   3 total cpu time :   236.3 secs   av.it.:  12.5
      thresh= 5.666E-03 alpha_mix =  0.700 |ddv_scf|^2 =  1.917E-05

      iter #   4 total cpu time :   238.4 secs   av.it.:  14.6
      thresh= 4.378E-04 alpha_mix =  0.700 |ddv_scf|^2 =  1.092E-06

      iter #   5 total cpu time :   240.7 secs   av.it.:  15.8
      thresh= 1.045E-04 alpha_mix =  0.700 |ddv_scf|^2 =  1.753E-07

      iter #   6 total cpu time :   243.1 secs   av.it.:  15.6
      thresh= 4.187E-05 alpha_mix =  0.700 |ddv_scf|^2 =  5.821E-09

      iter #   7 total cpu time :   245.5 secs   av.it.:  16.2
      thresh= 7.629E-06 alpha_mix =  0.700 |ddv_scf|^2 =  1.661E-10

      iter #   8 total cpu time :   248.0 secs   av.it.:  16.9
      thresh= 1.289E-06 alpha_mix =  0.700 |ddv_scf|^2 =  3.789E-10

      iter #   9 total cpu time :   250.2 secs   av.it.:  15.4
      thresh= 1.947E-06 alpha_mix =  0.700 |ddv_scf|^2 =  1.242E-10

      iter #  10 total cpu time :   252.3 secs   av.it.:  16.0
      thresh= 1.114E-06 alpha_mix =  0.700 |ddv_scf|^2 =  2.085E-10

      iter #  11 total cpu time :   255.1 secs   av.it.:  15.2
      thresh= 1.444E-06 alpha_mix =  0.700 |ddv_scf|^2 =  4.135E-11

      iter #  12 total cpu time :   257.2 secs   av.it.:  15.0
      thresh= 6.430E-07 alpha_mix =  0.700 |ddv_scf|^2 =  5.571E-13

     End of self-consistent calculation

     Convergence has been achieved 


     Representation #  5 mode #   5

     Self-consistent Calculation

      iter #   1 total cpu time :   258.8 secs   av.it.:   8.5
      thresh= 1.000E-02 alpha_mix =  0.700 |ddv_scf|^2 =  1.476E-06

      iter #   2 total cpu time :   261.1 secs   av.it.:  16.0
      thresh= 1.215E-04 alpha_mix =  0.700 |ddv_scf|^2 =  2.845E-08

      iter #   3 total cpu time :   263.7 secs   av.it.:  16.8
      thresh= 1.687E-05 alpha_mix =  0.700 |ddv_scf|^2 =  3.102E-08

      iter #   4 total cpu time :   265.8 secs   av.it.:  15.3
      thresh= 1.761E-05 alpha_mix =  0.700 |ddv_scf|^2 =  4.435E-10

      iter #   5 total cpu time :   268.1 secs   av.it.:  15.3
      thresh= 2.106E-06 alpha_mix =  0.700 |ddv_scf|^2 =  6.092E-12

      iter #   6 total cpu time :   270.7 secs   av.it.:  15.2
      thresh= 2.468E-07 alpha_mix =  0.700 |ddv_scf|^2 =  4.467E-14

     End of self-consistent calculation

     Convergence has been achieved 


     Representation #  6 modes #   6  7

     Self-consistent Calculation

      iter #   1 total cpu time :   273.4 secs   av.it.:   8.5
      thresh= 1.000E-02 alpha_mix =  0.700 |ddv_scf|^2 =  3.871E-07

      iter #   2 total cpu time :   277.5 secs   av.it.:  18.0
      thresh= 6.222E-05 alpha_mix =  0.700 |ddv_scf|^2 =  2.146E-08

      iter #   3 total cpu time :   282.1 secs   av.it.:  18.2
      thresh= 1.465E-05 alpha_mix =  0.700 |ddv_scf|^2 =  1.017E-09

      iter #   4 total cpu time :   286.5 secs   av.it.:  17.9
      thresh= 3.189E-06 alpha_mix =  0.700 |ddv_scf|^2 =  1.118E-11

      iter #   5 total cpu time :   290.6 secs   av.it.:  17.2
      thresh= 3.344E-07 alpha_mix =  0.700 |ddv_scf|^2 =  3.546E-13

     End of self-consistent calculation

     Convergence has been achieved 


     Representation #  7 modes #   8  9

     Self-consistent Calculation

      iter #   1 total cpu time :   293.2 secs   av.it.:   8.7
      thresh= 1.000E-02 alpha_mix =  0.700 |ddv_scf|^2 =  5.465E-07

      iter #   2 total cpu time :   297.6 secs   av.it.:  18.2
      thresh= 7.393E-05 alpha_mix =  0.700 |ddv_scf|^2 =  5.281E-08

      iter #   3 total cpu time :   301.8 secs   av.it.:  18.0
      thresh= 2.298E-05 alpha_mix =  0.700 |ddv_scf|^2 =  1.105E-09

      iter #   4 total cpu time :   305.9 secs   av.it.:  18.0
      thresh= 3.324E-06 alpha_mix =  0.700 |ddv_scf|^2 =  1.139E-11

      iter #   5 total cpu time :   309.8 secs   av.it.:  17.9
      thresh= 3.375E-07 alpha_mix =  0.700 |ddv_scf|^2 =  8.483E-13

     End of self-consistent calculation

     Convergence has been achieved 


     Representation #  8 modes #  10 11

     Self-consistent Calculation

      iter #   1 total cpu time :   313.1 secs   av.it.:   7.9
      thresh= 1.000E-02 alpha_mix =  0.700 |ddv_scf|^2 =  2.887E-07

      iter #   2 total cpu time :   317.4 secs   av.it.:  17.9
      thresh= 5.373E-05 alpha_mix =  0.700 |ddv_scf|^2 =  4.386E-08

      iter #   3 total cpu time :   321.4 secs   av.it.:  17.8
      thresh= 2.094E-05 alpha_mix =  0.700 |ddv_scf|^2 =  6.101E-10

      iter #   4 total cpu time :   325.5 secs   av.it.:  18.1
      thresh= 2.470E-06 alpha_mix =  0.700 |ddv_scf|^2 =  2.996E-11

      iter #   5 total cpu time :   329.7 secs   av.it.:  18.1
      thresh= 5.474E-07 alpha_mix =  0.700 |ddv_scf|^2 =  6.601E-13

     End of self-consistent calculation

     Convergence has been achieved 


     Representation #  9 modes #  12 13

     Self-consistent Calculation

      iter #   1 total cpu time :   332.8 secs   av.it.:  10.3
      thresh= 1.000E-02 alpha_mix =  0.700 |ddv_scf|^2 =  2.287E-06

      iter #   2 total cpu time :   337.2 secs   av.it.:  18.2
      thresh= 1.512E-04 alpha_mix =  0.700 |ddv_scf|^2 =  5.073E-07

      iter #   3 total cpu time :   341.4 secs   av.it.:  17.8
      thresh= 7.123E-05 alpha_mix =  0.700 |ddv_scf|^2 =  1.156E-09

      iter #   4 total cpu time :   345.9 secs   av.it.:  18.4
      thresh= 3.400E-06 alpha_mix =  0.700 |ddv_scf|^2 =  8.098E-11

      iter #   5 total cpu time :   350.1 secs   av.it.:  17.4
      thresh= 8.999E-07 alpha_mix =  0.700 |ddv_scf|^2 =  1.061E-12

      iter #   6 total cpu time :   354.6 secs   av.it.:  17.9
      thresh= 1.030E-07 alpha_mix =  0.700 |ddv_scf|^2 =  1.982E-14

     End of self-consistent calculation

     Convergence has been achieved 


     Representation # 10 modes #  14 15

     Self-consistent Calculation

      iter #   1 total cpu time :   357.2 secs   av.it.:   9.3
      thresh= 1.000E-02 alpha_mix =  0.700 |ddv_scf|^2 =  8.201E-07

      iter #   2 total cpu time :   361.9 secs   av.it.:  18.3
      thresh= 9.056E-05 alpha_mix =  0.700 |ddv_scf|^2 =  1.228E-07

      iter #   3 total cpu time :   366.1 secs   av.it.:  17.9
      thresh= 3.504E-05 alpha_mix =  0.700 |ddv_scf|^2 =  7.936E-10

      iter #   4 total cpu time :   370.9 secs   av.it.:  17.9
      thresh= 2.817E-06 alpha_mix =  0.700 |ddv_scf|^2 =  1.375E-11

      iter #   5 total cpu time :   375.2 secs   av.it.:  17.9
      thresh= 3.708E-07 alpha_mix =  0.700 |ddv_scf|^2 =  8.859E-13

     End of self-consistent calculation

     Convergence has been achieved 
 
     Number of q in the star =    1
     List of q in the star:
          1   0.000000000   0.000000000   0.241846804
     In addition there is the -q list: 
          1   0.000000000   0.000000000  -0.241846804

     Diagonalizing the dynamical matrix

     q = (    0.000000000   0.000000000   0.241846804 ) 

 **************************************************************************
     freq (    1) =      -0.712422 [THz] =     -23.763836 [cm-1]
     freq (    2) =      -0.712422 [THz] =     -23.763836 [cm-1]
     freq (    3) =       2.847055 [THz] =      94.967536 [cm-1]
     freq (    4) =       2.861942 [THz] =      95.464115 [cm-1]
     freq (    5) =       2.861942 [THz] =      95.464115 [cm-1]
     freq (    6) =       4.063559 [THz] =     135.545737 [cm-1]
     freq (    7) =       4.063559 [THz] =     135.545737 [cm-1]
     freq (    8) =       5.756402 [THz] =     192.012919 [cm-1]
     freq (    9) =       8.304774 [THz] =     277.017430 [cm-1]
     freq (   10) =       9.298358 [THz] =     310.159836 [cm-1]
     freq (   11) =       9.298358 [THz] =     310.159836 [cm-1]
     freq (   12) =      13.613310 [THz] =     454.091156 [cm-1]
     freq (   13) =      13.613310 [THz] =     454.091156 [cm-1]
     freq (   14) =      13.775009 [THz] =     459.484829 [cm-1]
     freq (   15) =      22.233798 [THz] =     741.639661 [cm-1]
 **************************************************************************

     Mode symmetry, C_4v (4mm)  point group:

     freq (  1 -  2) =        -23.8  [cm-1]   --> E    G_5 D_5       
     freq (  3 -  3) =         95.0  [cm-1]   --> A_1  G_1 D_1       
     freq (  4 -  5) =         95.5  [cm-1]   --> E    G_5 D_5       
     freq (  6 -  7) =        135.5  [cm-1]   --> E    G_5 D_5       
     freq (  8 -  8) =        192.0  [cm-1]   --> A_1  G_1 D_1       
     freq (  9 -  9) =        277.0  [cm-1]   --> B_1  G_3 D_2       
     freq ( 10 - 11) =        310.2  [cm-1]   --> E    G_5 D_5       
     freq ( 12 - 13) =        454.1  [cm-1]   --> E    G_5 D_5       
     freq ( 14 - 14) =        459.5  [cm-1]   --> A_1  G_1 D_1       
     freq ( 15 - 15) =        741.6  [cm-1]   --> A_1  G_1 D_1       

     Calculation of q =    0.0000000   0.0000000  -0.4836936

   Info: using nr1, nr2, nr3 values from input

   Info: using nr1, nr2, nr3 values from input
 
     Parallelization info
     --------------------
     sticks:   dense  smooth     PW     G-vecs:    dense   smooth      PW
     Min          63      31      9                 2089      739     115
     Max          64      32     10                 2094      746     118
     Sum        1781     885    261                58557    20775    3279
 


     bravais-lattice index     =            6
     lattice parameter (alat)  =       7.4843  a.u.
     unit-cell volume          =     433.3637 (a.u.)^3
     number of atoms/cell      =            5
     number of atomic types    =            3
     number of electrons       =        40.00
     number of Kohn-Sham states=           24
     kinetic-energy cutoff     =      50.0000  Ry
     charge density cutoff     =     400.0000  Ry
     Exchange-correlation      =  SLA  PW   PBE  PBE ( 1  4  3  4 0 0)

     celldm(1)=   7.484296  celldm(2)=   0.000000  celldm(3)=   1.033712
     celldm(4)=   0.000000  celldm(5)=   0.000000  celldm(6)=   0.000000

     crystal axes: (cart. coord. in units of alat)
               a(1) = (   1.000000   0.000000   0.000000 )  
               a(2) = (   0.000000   1.000000   0.000000 )  
               a(3) = (   0.000000   0.000000   1.033712 )  

     reciprocal axes: (cart. coord. in units 2 pi/alat)
               b(1) = (  1.000000  0.000000  0.000000 )  
               b(2) = (  0.000000  1.000000  0.000000 )  
               b(3) = (  0.000000  0.000000  0.967387 )  


     PseudoPot. # 1 for O  read from file:
     ../../PSP_DIR/O.pbe-rrkjus.UPF
     MD5 check sum: 390ba29e75625707450f3bd3f0eb6be9
     Pseudo is Ultrasoft, Zval =  6.0
     Generated by new atomic code, or converted to UPF format
     Using radial grid of 1269 points,  4 beta functions with: 
                l(1) =   0
                l(2) =   0
                l(3) =   1
                l(4) =   1
     Q(r) pseudized with 0 coefficients 


     PseudoPot. # 2 for Ti read from file:
     ../../PSP_DIR/Ti.pbe-sp-van_ak.UPF
     MD5 check sum: 8e4df49b7f0d34bbd5052bf3f5ea0213
     Pseudo is Ultrasoft, Zval = 12.0
     Generated by new atomic code, or converted to UPF format
     Using radial grid of  851 points,  6 beta functions with: 
                l(1) =   0
                l(2) =   0
                l(3) =   1
                l(4) =   1
                l(5) =   2
                l(6) =   2
     Q(r) pseudized with  8 coefficients,  rinner =    1.000   1.000   1.000
                                                       1.000   1.000

     PseudoPot. # 3 for Ba read from file:
     ../../PSP_DIR/Ba.pbe-nsp-van.UPF
     MD5 check sum: a011de417d3466d8e94df216395bc359
     Pseudo is Ultrasoft + core correction, Zval = 10.0
     Generated by new atomic code, or converted to UPF format
     Using radial grid of  907 points,  6 beta functions with: 
                l(1) =   0
                l(2) =   0
                l(3) =   1
                l(4) =   1
                l(5) =   2
                l(6) =   2
     Q(r) pseudized with  6 coefficients,  rinner =    1.200   1.200   1.200
                                                       1.200   1.200

     atomic species   valence    mass     pseudopotential
        O              6.00    15.99000     O ( 1.00)
        Ti            12.00    47.88000     Ti( 1.00)
        Ba            10.00   137.33000     Ba( 1.00)

      8 Sym. Ops. (no inversion) found



   Cartesian axes

     site n.     atom                  positions (alat units)
         1           Ba  tau(   1) = (   0.0000000   0.0000000   0.0240905  )
         2           Ti  tau(   2) = (   0.5000000   0.5000000   0.4839368  )
         3           O   tau(   3) = (   0.5000000   0.5000000   0.0225908  )
         4           O   tau(   4) = (   0.0000000   0.5000000   0.5288971  )
         5           O   tau(   5) = (   0.5000000   0.0000000   0.5288971  )

     number of k points=    36
                       cart. coord. in units 2pi/alat
        k(    1) = (   0.0833333   0.0833333   0.0806156), wk =   0.0740741
        k(    2) = (   0.0833333   0.0833333  -0.4030780), wk =   0.0000000
        k(    3) = (   0.0833333   0.0833333   0.2418468), wk =   0.0740741
        k(    4) = (   0.0833333   0.0833333  -0.2418468), wk =   0.0000000
        k(    5) = (   0.0833333   0.0833333   0.4030780), wk =   0.0740741
        k(    6) = (   0.0833333   0.0833333  -0.0806156), wk =   0.0000000
        k(    7) = (   0.0833333   0.2500000   0.0806156), wk =   0.1481481
        k(    8) = (   0.0833333   0.2500000  -0.4030780), wk =   0.0000000
        k(    9) = (   0.0833333   0.2500000   0.2418468), wk =   0.1481481
        k(   10) = (   0.0833333   0.2500000  -0.2418468), wk =   0.0000000
        k(   11) = (   0.0833333   0.2500000   0.4030780), wk =   0.1481481
        k(   12) = (   0.0833333   0.2500000  -0.0806156), wk =   0.0000000
        k(   13) = (   0.0833333   0.4166667   0.0806156), wk =   0.1481481
        k(   14) = (   0.0833333   0.4166667  -0.4030780), wk =   0.0000000
        k(   15) = (   0.0833333   0.4166667   0.2418468), wk =   0.1481481
        k(   16) = (   0.0833333   0.4166667  -0.2418468), wk =   0.0000000
        k(   17) = (   0.0833333   0.4166667   0.4030780), wk =   0.1481481
[...]
                l(2) =   0
                l(3) =   1
                l(4) =   1
                l(5) =   2
                l(6) =   2
     Q(r) pseudized with  6 coefficients,  rinner =    1.200   1.200   1.200
                                                       1.200   1.200

     Mode symmetry, C_4v (4mm)  point group:


     Atomic displacements:
     There are  11 irreducible representations

     Representation     1      1 modes -A_1  G_1 D_1  To be done

     Representation     2      1 modes -A_1  G_1 D_1  To be done

     Representation     3      1 modes -A_2  G_2 D_1'  To be done

     Representation     4      1 modes -B_1  G_3 D_2  To be done

     Representation     5      1 modes -B_2  G_4 D_2'  To be done

     Representation     6      1 modes -B_2  G_4 D_2'  To be done

     Representation     7      1 modes -B_2  G_4 D_2'  To be done

     Representation     8      2 modes -E    G_5 D_5  To be done

     Representation     9      2 modes -E    G_5 D_5  To be done

     Representation    10      2 modes -E    G_5 D_5  To be done

     Representation    11      2 modes -E    G_5 D_5  To be done



     Alpha used in Ewald sum =   2.8000
     PHONON       :     2h21m CPU        2h28m WALL



     Representation #  1 mode #   1

     Self-consistent Calculation

      iter #   1 total cpu time :  8898.5 secs   av.it.:   8.8
      thresh= 1.000E-02 alpha_mix =  0.700 |ddv_scf|^2 =  8.465E-06

      iter #   2 total cpu time :  8899.4 secs   av.it.:  15.4
      thresh= 2.909E-04 alpha_mix =  0.700 |ddv_scf|^2 =  2.975E-06

      iter #   3 total cpu time :  8900.2 secs   av.it.:  14.6
      thresh= 1.725E-04 alpha_mix =  0.700 |ddv_scf|^2 =  4.731E-09

      iter #   4 total cpu time :  8901.1 secs   av.it.:  14.4
      thresh= 6.878E-06 alpha_mix =  0.700 |ddv_scf|^2 =  5.438E-11

      iter #   5 total cpu time :  8902.2 secs   av.it.:  14.2
      thresh= 7.374E-07 alpha_mix =  0.700 |ddv_scf|^2 =  7.800E-13

     End of self-consistent calculation

     Convergence has been achieved 


     Representation #  2 mode #   2

     Self-consistent Calculation

      iter #   1 total cpu time :  8902.9 secs   av.it.:   7.9
      thresh= 1.000E-02 alpha_mix =  0.700 |ddv_scf|^2 =  4.048E-06

      iter #   2 total cpu time :  8903.8 secs   av.it.:  15.3
      thresh= 2.012E-04 alpha_mix =  0.700 |ddv_scf|^2 =  1.565E-06

      iter #   3 total cpu time :  8904.9 secs   av.it.:  14.6
      thresh= 1.251E-04 alpha_mix =  0.700 |ddv_scf|^2 =  2.611E-09

      iter #   4 total cpu time :  8906.1 secs   av.it.:  14.5
      thresh= 5.109E-06 alpha_mix =  0.700 |ddv_scf|^2 =  4.166E-11

      iter #   5 total cpu time :  8907.2 secs   av.it.:  15.2
      thresh= 6.455E-07 alpha_mix =  0.700 |ddv_scf|^2 =  9.898E-13

     End of self-consistent calculation

     Convergence has been achieved 


     Representation #  3 mode #   3

     Self-consistent Calculation

      iter #   1 total cpu time :  8907.8 secs   av.it.:   8.7
      thresh= 1.000E-02 alpha_mix =  0.700 |ddv_scf|^2 =  9.602E-07

      iter #   2 total cpu time :  8908.8 secs   av.it.:  16.2
      thresh= 9.799E-05 alpha_mix =  0.700 |ddv_scf|^2 =  3.505E-09

      iter #   3 total cpu time :  8909.8 secs   av.it.:  16.0
      thresh= 5.920E-06 alpha_mix =  0.700 |ddv_scf|^2 =  1.188E-10

      iter #   4 total cpu time :  8911.0 secs   av.it.:  14.5
      thresh= 1.090E-06 alpha_mix =  0.700 |ddv_scf|^2 =  2.878E-13

     End of self-consistent calculation

     Convergence has been achieved 


     Representation #  4 mode #   4

     Self-consistent Calculation

      iter #   1 total cpu time :  8911.6 secs   av.it.:   7.8
      thresh= 1.000E-02 alpha_mix =  0.700 |ddv_scf|^2 =  8.352E-07

      iter #   2 total cpu time :  8912.6 secs   av.it.:  15.4
      thresh= 9.139E-05 alpha_mix =  0.700 |ddv_scf|^2 =  2.305E-09

      iter #   3 total cpu time :  8913.7 secs   av.it.:  15.1
      thresh= 4.801E-06 alpha_mix =  0.700 |ddv_scf|^2 =  1.369E-10

      iter #   4 total cpu time :  8914.5 secs   av.it.:  12.9
      thresh= 1.170E-06 alpha_mix =  0.700 |ddv_scf|^2 =  1.333E-13

     End of self-consistent calculation

     Convergence has been achieved 


     Representation #  5 mode #   5

     Self-consistent Calculation

      iter #   1 total cpu time :  8915.3 secs   av.it.:   9.1
      thresh= 1.000E-02 alpha_mix =  0.700 |ddv_scf|^2 =  1.701E-05

      iter #   2 total cpu time :  8916.8 secs   av.it.:  16.9
      thresh= 4.124E-04 alpha_mix =  0.700 |ddv_scf|^2 =  1.492E-04

      iter #   3 total cpu time :  8917.6 secs   av.it.:  14.7
      thresh= 1.221E-03 alpha_mix =  0.700 |ddv_scf|^2 =  1.641E-06

      iter #   4 total cpu time :  8918.5 secs   av.it.:  15.5
      thresh= 1.281E-04 alpha_mix =  0.700 |ddv_scf|^2 =  2.297E-07

      iter #   5 total cpu time :  8919.7 secs   av.it.:  15.4
      thresh= 4.793E-05 alpha_mix =  0.700 |ddv_scf|^2 =  3.281E-09

      iter #   6 total cpu time :  8920.8 secs   av.it.:  15.2
      thresh= 5.728E-06 alpha_mix =  0.700 |ddv_scf|^2 =  2.573E-11

      iter #   7 total cpu time :  8921.8 secs   av.it.:  16.2
      thresh= 5.073E-07 alpha_mix =  0.700 |ddv_scf|^2 =  1.123E-11

      iter #   8 total cpu time :  8922.7 secs   av.it.:  15.4
      thresh= 3.351E-07 alpha_mix =  0.700 |ddv_scf|^2 =  3.352E-14

     End of self-consistent calculation

     Convergence has been achieved 


     Representation #  6 mode #   6

     Self-consistent Calculation

      iter #   1 total cpu time :  8923.5 secs   av.it.:  10.4
      thresh= 1.000E-02 alpha_mix =  0.700 |ddv_scf|^2 =  2.296E-05

      iter #   2 total cpu time :  8924.7 secs   av.it.:  16.9
      thresh= 4.791E-04 alpha_mix =  0.700 |ddv_scf|^2 =  7.636E-05

      iter #   3 total cpu time :  8925.6 secs   av.it.:  15.6
      thresh= 8.739E-04 alpha_mix =  0.700 |ddv_scf|^2 =  1.481E-05

      iter #   4 total cpu time :  8926.5 secs   av.it.:  14.7
      thresh= 3.849E-04 alpha_mix =  0.700 |ddv_scf|^2 =  8.217E-07

      iter #   5 total cpu time :  8927.9 secs   av.it.:  15.4
      thresh= 9.065E-05 alpha_mix =  0.700 |ddv_scf|^2 =  4.733E-09

      iter #   6 total cpu time :  8928.9 secs   av.it.:  15.3
      thresh= 6.880E-06 alpha_mix =  0.700 |ddv_scf|^2 =  4.524E-11

      iter #   7 total cpu time :  8929.8 secs   av.it.:  15.7
      thresh= 6.726E-07 alpha_mix =  0.700 |ddv_scf|^2 =  1.820E-12

      iter #   8 total cpu time :  8930.8 secs   av.it.:  15.3
      thresh= 1.349E-07 alpha_mix =  0.700 |ddv_scf|^2 =  1.166E-14

     End of self-consistent calculation

     Convergence has been achieved 


     Representation #  7 mode #   7

     Self-consistent Calculation

      iter #   1 total cpu time :  8931.5 secs   av.it.:   9.6
      thresh= 1.000E-02 alpha_mix =  0.700 |ddv_scf|^2 =  3.500E-05

      iter #   2 total cpu time :  8932.5 secs   av.it.:  16.8
      thresh= 5.916E-04 alpha_mix =  0.700 |ddv_scf|^2 =  3.023E-04

      iter #   3 total cpu time :  8933.6 secs   av.it.:  14.6
      thresh= 1.739E-03 alpha_mix =  0.700 |ddv_scf|^2 =  4.006E-06

      iter #   4 total cpu time :  8934.5 secs   av.it.:  15.0
      thresh= 2.002E-04 alpha_mix =  0.700 |ddv_scf|^2 =  4.025E-07

      iter #   5 total cpu time :  8935.4 secs   av.it.:  15.4
      thresh= 6.344E-05 alpha_mix =  0.700 |ddv_scf|^2 =  5.828E-09

      iter #   6 total cpu time :  8936.6 secs   av.it.:  14.9
      thresh= 7.634E-06 alpha_mix =  0.700 |ddv_scf|^2 =  3.399E-11

      iter #   7 total cpu time :  8937.6 secs   av.it.:  16.0
      thresh= 5.830E-07 alpha_mix =  0.700 |ddv_scf|^2 =  4.366E-12

      iter #   8 total cpu time :  8938.5 secs   av.it.:  15.7
      thresh= 2.089E-07 alpha_mix =  0.700 |ddv_scf|^2 =  3.267E-13

     End of self-consistent calculation

     Convergence has been achieved 


     Representation #  8 modes #   8  9

     Self-consistent Calculation

      iter #   1 total cpu time :  8940.2 secs   av.it.:   8.8
      thresh= 1.000E-02 alpha_mix =  0.700 |ddv_scf|^2 =  1.199E-06

      iter #   2 total cpu time :  8942.6 secs   av.it.:  17.9
      thresh= 1.095E-04 alpha_mix =  0.700 |ddv_scf|^2 =  4.284E-07

      iter #   3 total cpu time :  8945.6 secs   av.it.:  17.3
      thresh= 6.545E-05 alpha_mix =  0.700 |ddv_scf|^2 =  9.025E-09

      iter #   4 total cpu time :  8948.2 secs   av.it.:  18.3
      thresh= 9.500E-06 alpha_mix =  0.700 |ddv_scf|^2 =  1.116E-08

      iter #   5 total cpu time :  8950.7 secs   av.it.:  16.7
      thresh= 1.056E-05 alpha_mix =  0.700 |ddv_scf|^2 =  9.214E-12

      iter #   6 total cpu time :  8953.3 secs   av.it.:  17.5
      thresh= 3.035E-07 alpha_mix =  0.700 |ddv_scf|^2 =  4.283E-13

     End of self-consistent calculation

     Convergence has been achieved 


     Representation #  9 modes #  10 11

     Self-consistent Calculation

      iter #   1 total cpu time :  8955.0 secs   av.it.:   8.2
      thresh= 1.000E-02 alpha_mix =  0.700 |ddv_scf|^2 =  1.109E-06

      iter #   2 total cpu time :  8957.7 secs   av.it.:  17.3
      thresh= 1.053E-04 alpha_mix =  0.700 |ddv_scf|^2 =  4.675E-07

      iter #   3 total cpu time :  8960.4 secs   av.it.:  17.2
      thresh= 6.837E-05 alpha_mix =  0.700 |ddv_scf|^2 =  8.301E-09

      iter #   4 total cpu time :  8963.4 secs   av.it.:  17.9
      thresh= 9.111E-06 alpha_mix =  0.700 |ddv_scf|^2 =  5.577E-09

      iter #   5 total cpu time :  8965.8 secs   av.it.:  17.0
      thresh= 7.468E-06 alpha_mix =  0.700 |ddv_scf|^2 =  1.978E-11

      iter #   6 total cpu time :  8969.0 secs   av.it.:  18.2
      thresh= 4.448E-07 alpha_mix =  0.700 |ddv_scf|^2 =  1.865E-12

      iter #   7 total cpu time :  8971.8 secs   av.it.:  18.0
      thresh= 1.366E-07 alpha_mix =  0.700 |ddv_scf|^2 =  8.566E-14

     End of self-consistent calculation

     Convergence has been achieved 


     Representation # 10 modes #  12 13

     Self-consistent Calculation

      iter #   1 total cpu time :  8973.9 secs   av.it.:  10.9
      thresh= 1.000E-02 alpha_mix =  0.700 |ddv_scf|^2 =  5.931E-06

      iter #   2 total cpu time :  8976.5 secs   av.it.:  18.9
      thresh= 2.435E-04 alpha_mix =  0.700 |ddv_scf|^2 =  1.405E-05

      iter #   3 total cpu time :  8978.9 secs   av.it.:  17.1
      thresh= 3.748E-04 alpha_mix =  0.700 |ddv_scf|^2 =  7.262E-07

      iter #   4 total cpu time :  8982.2 secs   av.it.:  17.2
      thresh= 8.522E-05 alpha_mix =  0.700 |ddv_scf|^2 =  2.136E-09

      iter #   5 total cpu time :  8984.4 secs   av.it.:  17.2
      thresh= 4.621E-06 alpha_mix =  0.700 |ddv_scf|^2 =  2.623E-10

      iter #   6 total cpu time :  8986.8 secs   av.it.:  17.6
      thresh= 1.620E-06 alpha_mix =  0.700 |ddv_scf|^2 =  4.902E-12

      iter #   7 total cpu time :  8989.3 secs   av.it.:  17.2
      thresh= 2.214E-07 alpha_mix =  0.700 |ddv_scf|^2 =  2.312E-14

     End of self-consistent calculation

     Convergence has been achieved 


     Representation # 11 modes #  14 15

     Self-consistent Calculation

      iter #   1 total cpu time :  8991.2 secs   av.it.:   8.8
      thresh= 1.000E-02 alpha_mix =  0.700 |ddv_scf|^2 =  1.130E-06

      iter #   2 total cpu time :  8994.2 secs   av.it.:  17.8
      thresh= 1.063E-04 alpha_mix =  0.700 |ddv_scf|^2 =  3.795E-07

      iter #   3 total cpu time :  8996.6 secs   av.it.:  17.0
      thresh= 6.161E-05 alpha_mix =  0.700 |ddv_scf|^2 =  1.887E-09

      iter #   4 total cpu time :  8999.5 secs   av.it.:  18.0
      thresh= 4.344E-06 alpha_mix =  0.700 |ddv_scf|^2 =  9.370E-10

      iter #   5 total cpu time :  9001.7 secs   av.it.:  16.6
      thresh= 3.061E-06 alpha_mix =  0.700 |ddv_scf|^2 =  1.320E-11

      iter #   6 total cpu time :  9004.4 secs   av.it.:  17.1
      thresh= 3.633E-07 alpha_mix =  0.700 |ddv_scf|^2 =  3.567E-13

     End of self-consistent calculation

     Convergence has been achieved 
 
     Number of q in the star =    1
     List of q in the star:
          1  -0.500000000  -0.500000000  -0.483693608

     Diagonalizing the dynamical matrix

     q = (   -0.500000000  -0.500000000  -0.483693608 ) 

 **************************************************************************
     freq (    1) =       2.776983 [THz] =      92.630184 [cm-1]
     freq (    2) =       3.075515 [THz] =     102.588122 [cm-1]
     freq (    3) =       3.325219 [THz] =     110.917376 [cm-1]
     freq (    4) =       3.325219 [THz] =     110.917376 [cm-1]
     freq (    5) =       4.555338 [THz] =     151.949722 [cm-1]
     freq (    6) =       4.555338 [THz] =     151.949722 [cm-1]
     freq (    7) =       7.630209 [THz] =     254.516362 [cm-1]
     freq (    8) =      11.194884 [THz] =     373.421135 [cm-1]
     freq (    9) =      11.894797 [THz] =     396.767728 [cm-1]
     freq (   10) =      11.894797 [THz] =     396.767728 [cm-1]
     freq (   11) =      12.207006 [THz] =     407.181890 [cm-1]
     freq (   12) =      12.327109 [THz] =     411.188080 [cm-1]
     freq (   13) =      12.327109 [THz] =     411.188080 [cm-1]
     freq (   14) =      17.362731 [THz] =     579.158358 [cm-1]
     freq (   15) =      22.966158 [THz] =     766.068557 [cm-1]
 **************************************************************************

     Mode symmetry, C_4v (4mm)  point group:

     freq (  1 -  1) =         92.6  [cm-1]   --> B_1  G_3 D_2       
     freq (  2 -  2) =        102.6  [cm-1]   --> A_1  G_1 D_1       
     freq (  3 -  4) =        110.9  [cm-1]   --> E    G_5 D_5       
     freq (  5 -  6) =        151.9  [cm-1]   --> E    G_5 D_5       
     freq (  7 -  7) =        254.5  [cm-1]   --> B_2  G_4 D_2'      
     freq (  8 -  8) =        373.4  [cm-1]   --> A_2  G_2 D_1'      
     freq (  9 - 10) =        396.8  [cm-1]   --> E    G_5 D_5       
     freq ( 11 - 11) =        407.2  [cm-1]   --> A_1  G_1 D_1       
     freq ( 12 - 13) =        411.2  [cm-1]   --> E    G_5 D_5       
     freq ( 14 - 14) =        579.2  [cm-1]   --> B_2  G_4 D_2'      
     freq ( 15 - 15) =        766.1  [cm-1]   --> B_2  G_4 D_2'      
 
     init_run     :      1.81s CPU      2.02s WALL (      17 calls)
     electrons    :    209.08s CPU    214.10s WALL (      17 calls)

     Called by init_run:
     wfcinit      :      0.00s CPU      0.00s WALL (      17 calls)
     potinit      :      0.16s CPU      0.18s WALL (      17 calls)

     Called by electrons:
     c_bands      :    209.08s CPU    214.09s WALL (      17 calls)
     v_of_rho     :      0.05s CPU      0.05s WALL (      18 calls)
     newd         :      0.21s CPU      0.26s WALL (      18 calls)

     Called by c_bands:
     init_us_2    :      9.34s CPU      8.74s WALL (  187353 calls)
     cegterg      :    187.79s CPU    192.03s WALL (    3509 calls)

     Called by sum_band:

     Called by *egterg:
     h_psi        :   5861.67s CPU   6116.14s WALL ( 3959123 calls)
     s_psi        :    273.78s CPU    263.99s WALL ( 8025992 calls)
     g_psi        :      0.25s CPU      0.46s WALL (   51186 calls)
     cdiaghg      :     81.74s CPU     82.14s WALL (   53706 calls)

     Called by h_psi:
     h_psi:pot    :   5855.48s CPU   6098.48s WALL ( 3959123 calls)
     h_psi:calbec :    339.12s CPU    334.51s WALL ( 3959123 calls)
     vloc_psi     :   5392.20s CPU   5617.86s WALL ( 3959123 calls)
     add_vuspsi   :    119.31s CPU    132.45s WALL ( 3959123 calls)

     General routines
     calbec       :    692.43s CPU    695.60s WALL ( 8317583 calls)
     fft          :      8.48s CPU      8.93s WALL (   42341 calls)
     ffts         :      2.41s CPU      2.62s WALL (   27965 calls)
     fftw         :   6264.62s CPU   6377.62s WALL (******** calls)
     interpolate  :      1.54s CPU      1.74s WALL (    4610 calls)
     davcio       :     20.63s CPU     72.70s WALL (  852734 calls)
 
     Parallel routines
     fft_scatter  :   4244.13s CPU   4182.44s WALL (******** calls)
 
     PHONON       :     2h23m CPU        2h30m WALL

     INITIALIZATION: 
     phq_setup    :      0.26s CPU      0.29s WALL (      18 calls)
     phq_init     :     47.48s CPU     49.52s WALL (      18 calls)
 
     phq_init     :     47.48s CPU     49.52s WALL (      18 calls)
     set_drhoc    :      0.75s CPU      0.76s WALL (      54 calls)
     init_vloc    :      0.27s CPU      0.28s WALL (      18 calls)
     init_us_1    :      0.75s CPU      0.88s WALL (      18 calls)
     newd         :      0.21s CPU      0.26s WALL (      18 calls)
     dvanqq       :      2.89s CPU      2.93s WALL (      18 calls)
     drho         :     36.90s CPU     38.66s WALL (      18 calls)
 
     DYNAMICAL MATRIX:
     dynmat0      :      5.57s CPU      5.74s WALL (      18 calls)
     phqscf       :   8295.98s CPU   8697.63s WALL (      18 calls)
     dynmatrix    :      0.05s CPU      0.09s WALL (      18 calls)
 
     phqscf       :   8295.98s CPU   8697.63s WALL (      18 calls)
     solve_linter :   8271.24s CPU   8670.11s WALL (     243 calls)
     drhodv       :     21.35s CPU     22.27s WALL (     243 calls)
 
     dynmat0      :      5.57s CPU      5.74s WALL (      18 calls)
     dynmat_us    :      4.92s CPU      5.01s WALL (      18 calls)
     d2ionq       :      0.05s CPU      0.05s WALL (      18 calls)
     dynmatcc     :      0.57s CPU      0.57s WALL (      18 calls)
 
     dynmat_us    :      4.92s CPU      5.01s WALL (      18 calls)
     addusdynmat  :      0.00s CPU      0.01s WALL (      18 calls)
 
     phqscf       :   8295.98s CPU   8697.63s WALL (      18 calls)
     solve_linter :   8271.24s CPU   8670.11s WALL (     243 calls)
 
     solve_linter :   8271.24s CPU   8670.11s WALL (     243 calls)
     dvqpsi_us    :     88.54s CPU     91.73s WALL (   19440 calls)
     ortho        :     54.17s CPU     57.10s WALL (  164907 calls)
     cgsolve      :   6824.14s CPU   7112.12s WALL (  164907 calls)
     incdrhoscf   :    807.71s CPU    832.53s WALL (  164907 calls)
     addusddens   :     38.70s CPU     38.96s WALL (    2214 calls)
     vpsifft      :    297.99s CPU    319.08s WALL (  145251 calls)
     dv_of_drho   :      3.67s CPU      3.78s WALL (    2154 calls)
     mix_pot      :     11.20s CPU     20.06s WALL (    1979 calls)
     psymdvscf    :     55.27s CPU     55.62s WALL (    1971 calls)
     newdq        :     37.34s CPU     37.58s WALL (    1979 calls)
     adddvscf     :     26.95s CPU     27.00s WALL (  145629 calls)
     drhodvus     :      0.14s CPU      0.27s WALL (     243 calls)
 
     dvqpsi_us    :     88.54s CPU     91.73s WALL (   19440 calls)
     dvqpsi_us_on :     40.80s CPU     41.27s WALL (   19440 calls)
 
     cgsolve      :   6824.14s CPU   7112.12s WALL (  164907 calls)
     ch_psi       :   6592.37s CPU   6892.05s WALL ( 3901908 calls)
 
     ch_psi       :   6592.37s CPU   6892.05s WALL ( 3901908 calls)
     h_psi        :   5861.67s CPU   6116.14s WALL ( 3959123 calls)
     last         :    664.03s CPU    702.09s WALL ( 3901908 calls)
 
     h_psi        :   5861.67s CPU   6116.14s WALL ( 3959123 calls)
     add_vuspsi   :    119.31s CPU    132.45s WALL ( 3959123 calls)
 
     incdrhoscf   :    807.71s CPU    832.53s WALL (  164907 calls)
     addusdbec    :     24.98s CPU     25.10s WALL (  184077 calls)
 
     drhodvus     :      0.14s CPU      0.27s WALL (     243 calls)
 
      General routines
     calbec       :    692.43s CPU    695.60s WALL ( 8317583 calls)
     fft          :      8.48s CPU      8.93s WALL (   42341 calls)
     ffts         :      2.41s CPU      2.62s WALL (   27965 calls)
     fftw         :   6264.62s CPU   6377.62s WALL (******** calls)
     davcio       :     20.63s CPU     72.70s WALL (  852734 calls)
     write_rec    :      2.83s CPU      7.78s WALL (    2222 calls)
 
 
     PHONON       :     2h23m CPU        2h30m WALL

 
   This run was terminated on:  14:11: 5  10Jan2018            

=------------------------------------------------------------------------------=
   JOB DONE.
=------------------------------------------------------------------------------=
