
     Program PWSCF v.6.1 (svn rev. 13369) starts on 14Jan2018 at 18:22:56 

     This program is part of the open-source Quantum ESPRESSO suite
     for quantum simulation of materials; please cite
         "P. Giannozzi et al., J. Phys.:Condens. Matter 21 395502 (2009);
          URL http://www.quantum-espresso.org", 
     in publications or presentations arising from this work. More details at
     http://www.quantum-espresso.org/quote

     Parallel version (MPI), running on    28 processors
     R & G space division:  proc/nbgrp/npool/nimage =      28
     Waiting for input...
     Reading input from standard input

     Current dimensions of program PWSCF are:
     Max number of different atomic species (ntypx) = 10
     Max number of k-points (npk) =  40000
     Max angular momentum in pseudopotentials (lmaxx) =  3
               file O.pbe-rrkjus.UPF: wavefunction(s)  2S renormalized

     Subspace diagonalization in iterative solution of the eigenvalue problem:
     a serial algorithm will be used

 
     Parallelization info
     --------------------
     sticks:   dense  smooth     PW     G-vecs:    dense   smooth      PW
     Min         128      63     18                 5810     2051     306
     Max         129      64     19                 5814     2058     309
     Sum        3593    1789    505               162747    57555    8601
 

     Title: 
     cubic BaTiO3 scf xc=PBE with TI in middle                                  


     bravais-lattice index     =            1
     lattice parameter (alat)  =       7.5234  a.u.
     unit-cell volume          =     425.8418 (a.u.)^3
     number of atoms/cell      =            5
     number of atomic types    =            3
     number of electrons       =        40.00
     number of Kohn-Sham states=           24
     kinetic-energy cutoff     =     100.0000  Ry
     charge density cutoff     =     800.0000  Ry
     convergence threshold     =      1.0E-12
     mixing beta               =       0.6000
     number of iterations used =            8  plain     mixing
     Exchange-correlation      =  SLA  PW   PBE  PBE ( 1  4  3  4 0 0)

     celldm(1)=   7.523434  celldm(2)=   0.000000  celldm(3)=   0.000000
     celldm(4)=   0.000000  celldm(5)=   0.000000  celldm(6)=   0.000000

     crystal axes: (cart. coord. in units of alat)
               a(1) = (   1.000000   0.000000   0.000000 )  
               a(2) = (   0.000000   1.000000   0.000000 )  
               a(3) = (   0.000000   0.000000   1.000000 )  

     reciprocal axes: (cart. coord. in units 2 pi/alat)
               b(1) = (  1.000000  0.000000  0.000000 )  
               b(2) = (  0.000000  1.000000  0.000000 )  
               b(3) = (  0.000000  0.000000  1.000000 )  


     PseudoPot. # 1 for O  read from file:
     ../../PSP_DIR/O.pbe-rrkjus.UPF
     MD5 check sum: 390ba29e75625707450f3bd3f0eb6be9
     Pseudo is Ultrasoft, Zval =  6.0
     Generated by new atomic code, or converted to UPF format
     Using radial grid of 1269 points,  4 beta functions with: 
                l(1) =   0
                l(2) =   0
                l(3) =   1
                l(4) =   1
     Q(r) pseudized with 0 coefficients 


     PseudoPot. # 2 for Ti read from file:
     ../../PSP_DIR/Ti.pbe-sp-van_ak.UPF
     MD5 check sum: 8e4df49b7f0d34bbd5052bf3f5ea0213
     Pseudo is Ultrasoft, Zval = 12.0
     Generated by new atomic code, or converted to UPF format
     Using radial grid of  851 points,  6 beta functions with: 
                l(1) =   0
                l(2) =   0
                l(3) =   1
                l(4) =   1
                l(5) =   2
                l(6) =   2
     Q(r) pseudized with  8 coefficients,  rinner =    1.000   1.000   1.000
                                                       1.000   1.000

     PseudoPot. # 3 for Ba read from file:
     ../../PSP_DIR/Ba.pbe-nsp-van.UPF
     MD5 check sum: a011de417d3466d8e94df216395bc359
     Pseudo is Ultrasoft + core correction, Zval = 10.0
     Generated by new atomic code, or converted to UPF format
     Using radial grid of  907 points,  6 beta functions with: 
                l(1) =   0
                l(2) =   0
                l(3) =   1
                l(4) =   1
                l(5) =   2
                l(6) =   2
     Q(r) pseudized with  6 coefficients,  rinner =    1.200   1.200   1.200
                                                       1.200   1.200

     atomic species   valence    mass     pseudopotential
        O              6.00    15.99000     O ( 1.00)
        Ti            12.00    47.88000     Ti( 1.00)
        Ba            10.00   137.33000     Ba( 1.00)

     48 Sym. Ops., with inversion, found



   Cartesian axes

     site n.     atom                  positions (alat units)
         1           Ba  tau(   1) = (   0.0000000   0.0000000   0.0000000  )
         2           Ti  tau(   2) = (   0.5000000   0.5000000   0.5000000  )
         3           O   tau(   3) = (   0.0000000   0.5000000   0.5000000  )
         4           O   tau(   4) = (   0.5000000   0.0000000   0.5000000  )
         5           O   tau(   5) = (   0.5000000   0.5000000   0.0000000  )

     number of k points=    10
                       cart. coord. in units 2pi/alat
        k(    1) = (   0.0833333   0.0833333   0.0833333), wk =   0.0740741
        k(    2) = (   0.0833333   0.0833333   0.2500000), wk =   0.2222222
        k(    3) = (   0.0833333   0.0833333   0.4166667), wk =   0.2222222
        k(    4) = (   0.0833333   0.2500000   0.2500000), wk =   0.2222222
        k(    5) = (   0.0833333   0.2500000   0.4166667), wk =   0.4444444
        k(    6) = (   0.0833333   0.4166667   0.4166667), wk =   0.2222222
        k(    7) = (   0.2500000   0.2500000   0.2500000), wk =   0.0740741
        k(    8) = (   0.2500000   0.2500000   0.4166667), wk =   0.2222222
        k(    9) = (   0.2500000   0.4166667   0.4166667), wk =   0.2222222
        k(   10) = (   0.4166667   0.4166667   0.4166667), wk =   0.0740741

     Dense  grid:   162747 G-vectors     FFT dimensions: (  72,  72,  72)

     Smooth grid:    57555 G-vectors     FFT dimensions: (  48,  48,  48)

     Estimated max dynamical RAM per process >       5.86MB

     Estimated total allocated dynamical RAM >     164.20MB

     Initial potential from superposition of free atoms

     starting charge   38.98495, renormalised to   40.00000
     Starting wfc are   35 randomized atomic wfcs

     total cpu time spent up to now is        0.8 secs

     per-process dynamical memory:    50.7 Mb

     Self-consistent Calculation

     iteration #  1     ecut=   100.00 Ry     beta=0.60
     Davidson diagonalization with overlap
     ethr =  1.00E-02,  avg # of iterations =  2.5

     total cpu time spent up to now is        1.1 secs

     total energy              =    -302.90030827 Ry
     Harris-Foulkes estimate   =    -303.48110767 Ry
     estimated scf accuracy    <       0.80946891 Ry

     iteration #  2     ecut=   100.00 Ry     beta=0.60
     Davidson diagonalization with overlap
     ethr =  2.02E-03,  avg # of iterations =  4.0

     total cpu time spent up to now is        1.4 secs

     total energy              =    -302.17203791 Ry
     Harris-Foulkes estimate   =    -303.93559299 Ry
     estimated scf accuracy    <       7.27832171 Ry

     iteration #  3     ecut=   100.00 Ry     beta=0.60
     Davidson diagonalization with overlap
     ethr =  2.02E-03,  avg # of iterations =  3.4

     total cpu time spent up to now is        1.8 secs

     total energy              =    -303.32069544 Ry
     Harris-Foulkes estimate   =    -303.36891635 Ry
     estimated scf accuracy    <       0.19065844 Ry

     iteration #  4     ecut=   100.00 Ry     beta=0.60
     Davidson diagonalization with overlap
     ethr =  4.77E-04,  avg # of iterations =  1.0

     total cpu time spent up to now is        2.0 secs

     total energy              =    -303.30425635 Ry
     Harris-Foulkes estimate   =    -303.32942575 Ry
     estimated scf accuracy    <       0.07917437 Ry

     iteration #  5     ecut=   100.00 Ry     beta=0.60
     Davidson diagonalization with overlap
     ethr =  1.98E-04,  avg # of iterations =  3.1

     total cpu time spent up to now is        2.3 secs

     total energy              =    -303.31753201 Ry
     Harris-Foulkes estimate   =    -303.31767321 Ry
     estimated scf accuracy    <       0.00069265 Ry

     iteration #  6     ecut=   100.00 Ry     beta=0.60
     Davidson diagonalization with overlap
     ethr =  1.73E-06,  avg # of iterations =  4.5

     total cpu time spent up to now is        2.6 secs

     total energy              =    -303.31782463 Ry
     Harris-Foulkes estimate   =    -303.31797826 Ry
     estimated scf accuracy    <       0.00029053 Ry

     iteration #  7     ecut=   100.00 Ry     beta=0.60
     Davidson diagonalization with overlap
     ethr =  7.26E-07,  avg # of iterations =  3.5

     total cpu time spent up to now is        2.9 secs

     total energy              =    -303.31790446 Ry
     Harris-Foulkes estimate   =    -303.31791880 Ry
     estimated scf accuracy    <       0.00005105 Ry

     iteration #  8     ecut=   100.00 Ry     beta=0.60
     Davidson diagonalization with overlap
     ethr =  1.28E-07,  avg # of iterations =  1.7

     total cpu time spent up to now is        3.2 secs

     total energy              =    -303.31790571 Ry
     Harris-Foulkes estimate   =    -303.31790895 Ry
     estimated scf accuracy    <       0.00000693 Ry

     iteration #  9     ecut=   100.00 Ry     beta=0.60
     Davidson diagonalization with overlap
     ethr =  1.73E-08,  avg # of iterations =  3.5

     total cpu time spent up to now is        3.5 secs

     total energy              =    -303.31790800 Ry
     Harris-Foulkes estimate   =    -303.31790809 Ry
     estimated scf accuracy    <       0.00000048 Ry

     iteration # 10     ecut=   100.00 Ry     beta=0.60
     Davidson diagonalization with overlap
     ethr =  1.20E-09,  avg # of iterations =  1.9

     total cpu time spent up to now is        3.8 secs

     total energy              =    -303.31790802 Ry
     Harris-Foulkes estimate   =    -303.31790805 Ry
     estimated scf accuracy    <       0.00000011 Ry

     iteration # 11     ecut=   100.00 Ry     beta=0.60
     Davidson diagonalization with overlap
     ethr =  2.65E-10,  avg # of iterations =  3.2

     total cpu time spent up to now is        4.1 secs

     total energy              =    -303.31790804 Ry
     Harris-Foulkes estimate   =    -303.31790804 Ry
     estimated scf accuracy    <          6.7E-10 Ry

     iteration # 12     ecut=   100.00 Ry     beta=0.60
     Davidson diagonalization with overlap
     ethr =  1.67E-12,  avg # of iterations =  4.1

     total cpu time spent up to now is        4.7 secs

     total energy              =    -303.31790804 Ry
     Harris-Foulkes estimate   =    -303.31790804 Ry
     estimated scf accuracy    <          1.3E-09 Ry

     iteration # 13     ecut=   100.00 Ry     beta=0.60
     Davidson diagonalization with overlap
     ethr =  1.67E-12,  avg # of iterations =  3.5

     total cpu time spent up to now is        5.0 secs

     total energy              =    -303.31790804 Ry
     Harris-Foulkes estimate   =    -303.31790804 Ry
     estimated scf accuracy    <          7.1E-11 Ry

     iteration # 14     ecut=   100.00 Ry     beta=0.60
     Davidson diagonalization with overlap
     ethr =  1.77E-13,  avg # of iterations =  2.1

     total cpu time spent up to now is        5.3 secs

     total energy              =    -303.31790804 Ry
     Harris-Foulkes estimate   =    -303.31790804 Ry
     estimated scf accuracy    <          6.1E-12 Ry

     iteration # 15     ecut=   100.00 Ry     beta=0.60
     Davidson diagonalization with overlap
     ethr =  1.00E-13,  avg # of iterations =  1.0

     total cpu time spent up to now is        5.5 secs

     End of self-consistent calculation

          k = 0.0833 0.0833 0.0833 (  7174 PWs)   bands (ev):

   -46.0472 -22.2872 -22.2869 -22.2869 -14.0075  -6.3570  -5.6899  -5.6899
     0.7762   0.7762   0.9025   7.8898   8.0834   8.0834   8.9193   8.9193
     9.2846   9.8614  10.1657  10.1657  12.5403  12.5907  12.5907  14.8478

          k = 0.0833 0.0833 0.2500 (  7174 PWs)   bands (ev):

   -46.0467 -22.3111 -22.2860 -22.2859 -13.9531  -6.4026  -5.6758  -5.6077
     0.8248   0.8300   1.0748   7.2176   7.8550   7.9474   8.5040   8.5115
     9.2041   9.2326   9.8809   9.8881  12.6082  13.2909  13.2957  14.8469

          k = 0.0833 0.0833 0.4167 (  7183 PWs)   bands (ev):

   -46.0462 -22.3351 -22.2850 -22.2849 -13.8973  -6.5227  -5.6617  -5.4313
     0.8745   0.9761   1.1477   6.5219   7.6769   7.7537   7.9691   8.3100
     9.0312   9.1445   9.5443   9.6547  12.6473  13.9532  13.9602  14.8413

          k = 0.0833 0.2500 0.2500 (  7191 PWs)   bands (ev):

   -46.0462 -22.3103 -22.3095 -22.2850 -13.9072  -6.3094  -5.6550  -5.6080
     0.7368   0.8406   1.1667   6.9336   7.4253   7.6998   8.0181   8.3145
     8.8338   9.4586   9.5350   9.9679  13.2662  13.3907  13.6342  15.3342

          k = 0.0833 0.2500 0.4167 (  7196 PWs)   bands (ev):

   -46.0458 -22.3336 -22.3086 -22.2841 -13.8602  -6.3037  -5.6234  -5.5172
     0.7471   0.8928   1.1081   6.4463   7.1185   7.3045   7.7894   8.1524
     8.9116   9.2671   9.4408   9.9634  13.3608  13.9852  14.1193  15.4254

          k = 0.0833 0.4167 0.4167 (  7204 PWs)   bands (ev):

   -46.0453 -22.3322 -22.3320 -22.2832 -13.8224  -6.0708  -5.6164  -5.5759
     0.6912   0.7408   1.0926   6.2750   6.6891   6.6940   7.8388   7.8933
     8.6353   9.4812   9.6186  10.3122  13.9951  14.0269  14.4142  15.6058

          k = 0.2500 0.2500 0.2500 (  7199 PWs)   bands (ev):

   -46.0458 -22.3094 -22.3084 -22.3084 -13.8669  -6.1563  -5.6115  -5.6115
     0.6034   0.6034   1.2156   6.7401   7.3961   7.3961   7.9321   8.1463
     8.1463   9.7626   9.7626   9.7664  13.7093  13.7333  13.7333  16.5314

          k = 0.2500 0.2500 0.4167 (  7201 PWs)   bands (ev):

   -46.0453 -22.3323 -22.3079 -22.3073 -13.8258  -6.0767  -5.5666  -5.5317
     0.4699   0.6119   1.0005   6.4147   7.1046   7.3747   7.4292   8.0946
     8.2918   9.5691   9.8781   9.8907  13.8101  14.1880  14.2189  16.4995

          k = 0.2500 0.4167 0.4167 (  7195 PWs)   bands (ev):

   -46.0448 -22.3310 -22.3308 -22.3066 -13.7907  -5.8325  -5.5432  -5.5192
     0.3641   0.3925   0.6928   6.2637   6.6931   7.2858   7.4523   8.0556
     8.1248   9.8037   9.8940  10.2849  14.2836  14.2969  14.5110  16.8488

          k = 0.4167 0.4167 0.4167 (  7196 PWs)   bands (ev):

   -46.0444 -22.3299 -22.3297 -22.3297 -13.7584  -5.5740  -5.4658  -5.4658
     0.1096   0.1096   0.2623   6.1117   6.6991   6.6991   7.8923   8.1379
     8.1379  10.2214  10.2214  10.2991  14.6156  14.6156  14.6187  17.7022

     highest occupied, lowest unoccupied level (ev):    10.3122   12.5403

!    total energy              =    -303.31790804 Ry
     Harris-Foulkes estimate   =    -303.31790804 Ry
     estimated scf accuracy    <          3.9E-13 Ry

     The total energy is the sum of the following terms:

     one-electron contribution =     -69.85511416 Ry
     hartree contribution      =      59.15893164 Ry
     xc contribution           =     -84.18385329 Ry
     ewald contribution        =    -208.43787223 Ry

     convergence has been achieved in  15 iterations

     Forces acting on atoms (cartesian axes, Ry/au):

     atom    1 type  3   force =     0.00000000   -0.00000000    0.00000000
     atom    2 type  2   force =     0.00000000    0.00000000    0.00000000
     atom    3 type  1   force =     0.00000000    0.00000000    0.00000000
     atom    4 type  1   force =     0.00000000    0.00000000    0.00000000
     atom    5 type  1   force =     0.00000000    0.00000000    0.00000000

     Total force =     0.000000     Total SCF correction =     0.000000


     Computing stress (Cartesian axis) and pressure

          total   stress  (Ry/bohr**3)                   (kbar)     P=   -0.06
  -0.00000038   0.00000000   0.00000000         -0.06      0.00      0.00
   0.00000000  -0.00000038   0.00000000          0.00     -0.06      0.00
   0.00000000   0.00000000  -0.00000038          0.00      0.00     -0.06


     Writing output data file bto.save
 
     init_run     :      0.29s CPU      0.43s WALL (       1 calls)
     electrons    :      4.67s CPU      4.81s WALL (       1 calls)
     forces       :      0.10s CPU      0.11s WALL (       1 calls)
     stress       :      0.24s CPU      0.25s WALL (       1 calls)

     Called by init_run:
     wfcinit      :      0.08s CPU      0.09s WALL (       1 calls)
     potinit      :      0.03s CPU      0.05s WALL (       1 calls)

     Called by electrons:
     c_bands      :      2.89s CPU      2.95s WALL (      15 calls)
     sum_band     :      1.07s CPU      1.09s WALL (      15 calls)
     v_of_rho     :      0.14s CPU      0.15s WALL (      16 calls)
     newd         :      0.54s CPU      0.55s WALL (      16 calls)
     mix_rho      :      0.02s CPU      0.03s WALL (      15 calls)

     Called by c_bands:
     init_us_2    :      0.04s CPU      0.05s WALL (     330 calls)
     cegterg      :      2.72s CPU      2.77s WALL (     150 calls)

     Called by sum_band:
     sum_band:bec :      0.00s CPU      0.00s WALL (     150 calls)
     addusdens    :      0.66s CPU      0.66s WALL (      15 calls)

     Called by *egterg:
     h_psi        :      1.55s CPU      1.62s WALL (     590 calls)
     s_psi        :      0.06s CPU      0.05s WALL (     590 calls)
     g_psi        :      0.01s CPU      0.01s WALL (     430 calls)
     cdiaghg      :      0.84s CPU      0.77s WALL (     580 calls)

     Called by h_psi:
     h_psi:pot    :      1.54s CPU      1.61s WALL (     590 calls)
     h_psi:calbec :      0.11s CPU      0.09s WALL (     590 calls)
     vloc_psi     :      1.39s CPU      1.46s WALL (     590 calls)
     add_vuspsi   :      0.05s CPU      0.05s WALL (     590 calls)

     General routines
     calbec       :      0.16s CPU      0.14s WALL (     790 calls)
     fft          :      0.15s CPU      0.19s WALL (     277 calls)
     ffts         :      0.00s CPU      0.01s WALL (      31 calls)
     fftw         :      1.50s CPU      1.56s WALL (   22876 calls)
     interpolate  :      0.02s CPU      0.02s WALL (      31 calls)
     davcio       :      0.00s CPU      0.00s WALL (      10 calls)
 
     Parallel routines
     fft_scatter  :      0.93s CPU      0.97s WALL (   23184 calls)
 
     PWSCF        :     5.48s CPU         6.10s WALL

 
   This run was terminated on:  18:23: 2  14Jan2018            

=------------------------------------------------------------------------------=
   JOB DONE.
=------------------------------------------------------------------------------=
