
     Program PHONON v.6.1 (svn rev. 13369) starts on 14Jan2018 at 18:23: 4 

     This program is part of the open-source Quantum ESPRESSO suite
     for quantum simulation of materials; please cite
         "P. Giannozzi et al., J. Phys.:Condens. Matter 21 395502 (2009);
          URL http://www.quantum-espresso.org", 
     in publications or presentations arising from this work. More details at
     http://www.quantum-espresso.org/quote

     Parallel version (MPI), running on    28 processors
     R & G space division:  proc/nbgrp/npool/nimage =      28

     Reading data from directory:
     ./bto.save

   Info: using nr1, nr2, nr3 values from input

   Info: using nr1, nr2, nr3 values from input

     IMPORTANT: XC functional enforced from input :
     Exchange-correlation      =  SLA  PW   PBE  PBE ( 1  4  3  4 0 0)
     Any further DFT definition will be discarded
     Please, verify this is what you really want

               file O.pbe-rrkjus.UPF: wavefunction(s)  2S renormalized
 
     Parallelization info
     --------------------
     sticks:   dense  smooth     PW     G-vecs:    dense   smooth      PW
     Min         128      63     18                 5810     2051     306
     Max         129      64     19                 5814     2058     309
     Sum        3593    1789    505               162747    57555    8601
 


     Dynamical matrices for ( 4, 4, 4)  uniform grid of q-points
     (  10q-points):
       N         xq(1)         xq(2)         xq(3) 
       1   0.000000000   0.000000000   0.000000000
       2   0.000000000   0.000000000   0.250000000
       3   0.000000000   0.000000000  -0.500000000
       4   0.000000000   0.250000000   0.250000000
       5   0.000000000   0.250000000  -0.500000000
       6   0.000000000  -0.500000000  -0.500000000
       7   0.250000000   0.250000000   0.250000000
       8   0.250000000   0.250000000  -0.500000000
       9   0.250000000  -0.500000000  -0.500000000
      10  -0.500000000  -0.500000000  -0.500000000

     Calculation of q =    0.0000000   0.0000000   0.0000000

                                                                                

     bravais-lattice index     =            1
     lattice parameter (alat)  =       7.5234  a.u.
     unit-cell volume          =     425.8418 (a.u.)^3
     number of atoms/cell      =            5
     number of atomic types    =            3
     kinetic-energy cut-off    =     100.0000  Ry
     charge density cut-off    =     800.0000  Ry
     convergence threshold     =      1.0E-12
     beta                      =       0.7000
     number of iterations used =            4
     Exchange-correlation      =  SLA  PW   PBE  PBE ( 1  4  3  4 0 0)


     celldm(1)=    7.52343  celldm(2)=    0.00000  celldm(3)=    0.00000
     celldm(4)=    0.00000  celldm(5)=    0.00000  celldm(6)=    0.00000

     crystal axes: (cart. coord. in units of alat)
               a(1) = (  1.0000  0.0000  0.0000 )  
               a(2) = (  0.0000  1.0000  0.0000 )  
               a(3) = (  0.0000  0.0000  1.0000 )  

     reciprocal axes: (cart. coord. in units 2 pi/alat)
               b(1) = (  1.0000  0.0000  0.0000 )  
               b(2) = (  0.0000  1.0000  0.0000 )  
               b(3) = (  0.0000  0.0000  1.0000 )  


     Atoms inside the unit cell: 

     Cartesian axes

     site n.  atom      mass           positions (alat units)
        1     Ba 137.3300   tau(    1) = (    0.00000    0.00000    0.00000  )
        2     Ti  47.8800   tau(    2) = (    0.50000    0.50000    0.50000  )
        3     O   15.9900   tau(    3) = (    0.00000    0.50000    0.50000  )
        4     O   15.9900   tau(    4) = (    0.50000    0.00000    0.50000  )
        5     O   15.9900   tau(    5) = (    0.50000    0.50000    0.00000  )

     Computing dynamical matrix for 
                    q = (   0.0000000   0.0000000   0.0000000 )
 
     49 Sym.Ops. (with q -> -q+G )


     G cutoff = 1146.9974  (   5814 G-vectors)     FFT grid: ( 72, 72, 72)
     G cutoff =  573.4987  (   2058 G-vectors)  smooth grid: ( 48, 48, 48)
     number of k points=    10

     PseudoPot. # 1 for O  read from file:
     ../../PSP_DIR/O.pbe-rrkjus.UPF
     MD5 check sum: 390ba29e75625707450f3bd3f0eb6be9
     Pseudo is Ultrasoft, Zval =  6.0
     Generated by new atomic code, or converted to UPF format
     Using radial grid of 1269 points,  4 beta functions with: 
                l(1) =   0
                l(2) =   0
                l(3) =   1
                l(4) =   1
     Q(r) pseudized with 0 coefficients 


     PseudoPot. # 2 for Ti read from file:
     ../../PSP_DIR/Ti.pbe-sp-van_ak.UPF
     MD5 check sum: 8e4df49b7f0d34bbd5052bf3f5ea0213
     Pseudo is Ultrasoft, Zval = 12.0
     Generated by new atomic code, or converted to UPF format
     Using radial grid of  851 points,  6 beta functions with: 
                l(1) =   0
                l(2) =   0
                l(3) =   1
                l(4) =   1
                l(5) =   2
                l(6) =   2
     Q(r) pseudized with  8 coefficients,  rinner =    1.000   1.000   1.000
                                                       1.000   1.000

     PseudoPot. # 3 for Ba read from file:
     ../../PSP_DIR/Ba.pbe-nsp-van.UPF
     MD5 check sum: a011de417d3466d8e94df216395bc359
     Pseudo is Ultrasoft + core correction, Zval = 10.0
     Generated by new atomic code, or converted to UPF format
     Using radial grid of  907 points,  6 beta functions with: 
                l(1) =   0
                l(2) =   0
                l(3) =   1
                l(4) =   1
                l(5) =   2
                l(6) =   2
     Q(r) pseudized with  6 coefficients,  rinner =    1.200   1.200   1.200
                                                       1.200   1.200

     Mode symmetry, O_h (m-3m)  point group:


     Electric field:
     Dielectric constant
     Born effective charges in two ways 


     Atomic displacements:
     There are   5 irreducible representations

     Representation     1      3 modes -T_1u G_15  G_4-  To be done

     Representation     2      3 modes -T_1u G_15  G_4-  To be done

     Representation     3      3 modes -T_1u G_15  G_4-  To be done

     Representation     4      3 modes -T_1u G_15  G_4-  To be done

     Representation     5      3 modes -T_2u G_25  G_5-  To be done



     Alpha used in Ewald sum =   2.8000
     PHONON       :     2.41s CPU         2.91s WALL


     Electric Fields Calculation

      iter #   1 total cpu time :    11.8 secs   av.it.:   9.6
      thresh= 1.000E-02 alpha_mix =  0.700 |ddv_scf|^2 =  7.112E-09

      iter #   2 total cpu time :    16.6 secs   av.it.:  20.0
      thresh= 8.433E-06 alpha_mix =  0.700 |ddv_scf|^2 =  1.076E-09

      iter #   3 total cpu time :    21.1 secs   av.it.:  18.7
      thresh= 3.281E-06 alpha_mix =  0.700 |ddv_scf|^2 =  6.868E-11

      iter #   4 total cpu time :    25.4 secs   av.it.:  19.1
      thresh= 8.287E-07 alpha_mix =  0.700 |ddv_scf|^2 =  4.133E-12

      iter #   5 total cpu time :    29.6 secs   av.it.:  19.2
      thresh= 2.033E-07 alpha_mix =  0.700 |ddv_scf|^2 =  1.281E-13

     End of electric fields calculation

          Dielectric constant in cartesian axis 

          (       6.516983780      -0.000000000       0.000000000 )
          (       0.000000000       6.516983780       0.000000000 )
          (       0.000000000      -0.000000000       6.516983780 )

          Effective charges (d Force / dE) in cartesian axis

           atom      1   Ba 
      Ex  (        2.52954        0.00000        0.00000 )
      Ey  (       -0.00000        2.52954        0.00000 )
      Ez  (       -0.00000        0.00000        2.52954 )
           atom      2   Ti 
      Ex  (        7.32340       -0.00000        0.00000 )
      Ey  (        0.00000        7.32340       -0.00000 )
      Ez  (        0.00000        0.00000        7.32340 )
           atom      3   O  
      Ex  (       -5.75594        0.00000        0.00000 )
      Ey  (       -0.00000       -2.14551       -0.00000 )
      Ez  (       -0.00000       -0.00000       -2.14551 )
           atom      4   O  
      Ex  (       -2.14551       -0.00000        0.00000 )
      Ey  (        0.00000       -5.75594        0.00000 )
      Ez  (        0.00000        0.00000       -2.14551 )
           atom      5   O  
      Ex  (       -2.14551       -0.00000        0.00000 )
      Ey  (        0.00000       -2.14551        0.00000 )
      Ez  (        0.00000        0.00000       -5.75594 )


     Representation #  1 modes #   1  2  3

     Self-consistent Calculation

      iter #   1 total cpu time :    39.5 secs   av.it.:  10.1
      thresh= 1.000E-02 alpha_mix =  0.700 |ddv_scf|^2 =  3.221E-07

      iter #   2 total cpu time :    44.7 secs   av.it.:  19.6
      thresh= 5.675E-05 alpha_mix =  0.700 |ddv_scf|^2 =  8.784E-08

      iter #   3 total cpu time :    49.6 secs   av.it.:  19.0
      thresh= 2.964E-05 alpha_mix =  0.700 |ddv_scf|^2 =  1.969E-10

      iter #   4 total cpu time :    54.5 secs   av.it.:  20.0
      thresh= 1.403E-06 alpha_mix =  0.700 |ddv_scf|^2 =  5.066E-12

      iter #   5 total cpu time :    59.5 secs   av.it.:  19.2
      thresh= 2.251E-07 alpha_mix =  0.700 |ddv_scf|^2 =  1.220E-13

     End of self-consistent calculation

     Convergence has been achieved 


     Representation #  2 modes #   4  5  6

     Self-consistent Calculation

      iter #   1 total cpu time :    64.0 secs   av.it.:   7.8
      thresh= 1.000E-02 alpha_mix =  0.700 |ddv_scf|^2 =  4.684E-08

      iter #   2 total cpu time :    69.1 secs   av.it.:  19.1
      thresh= 2.164E-05 alpha_mix =  0.700 |ddv_scf|^2 =  9.812E-09

      iter #   3 total cpu time :    73.9 secs   av.it.:  19.0
      thresh= 9.906E-06 alpha_mix =  0.700 |ddv_scf|^2 =  9.050E-11

      iter #   4 total cpu time :    78.8 secs   av.it.:  19.2
      thresh= 9.513E-07 alpha_mix =  0.700 |ddv_scf|^2 =  4.271E-12

      iter #   5 total cpu time :    84.4 secs   av.it.:  19.5
      thresh= 2.067E-07 alpha_mix =  0.700 |ddv_scf|^2 =  8.712E-14

     End of self-consistent calculation

     Convergence has been achieved 


     Representation #  3 modes #   7  8  9

     Self-consistent Calculation

      iter #   1 total cpu time :    89.1 secs   av.it.:   9.3
      thresh= 1.000E-02 alpha_mix =  0.700 |ddv_scf|^2 =  1.479E-07

      iter #   2 total cpu time :    94.5 secs   av.it.:  19.7
      thresh= 3.846E-05 alpha_mix =  0.700 |ddv_scf|^2 =  3.191E-08

      iter #   3 total cpu time :    99.3 secs   av.it.:  19.1
      thresh= 1.786E-05 alpha_mix =  0.700 |ddv_scf|^2 =  1.077E-10

      iter #   4 total cpu time :   104.5 secs   av.it.:  19.2
      thresh= 1.038E-06 alpha_mix =  0.700 |ddv_scf|^2 =  1.506E-12

      iter #   5 total cpu time :   111.0 secs   av.it.:  19.3
      thresh= 1.227E-07 alpha_mix =  0.700 |ddv_scf|^2 =  9.534E-14

     End of self-consistent calculation

     Convergence has been achieved 


     Representation #  4 modes #  10 11 12

     Self-consistent Calculation

      iter #   1 total cpu time :   115.9 secs   av.it.:   8.7
      thresh= 1.000E-02 alpha_mix =  0.700 |ddv_scf|^2 =  6.372E-08

      iter #   2 total cpu time :   121.3 secs   av.it.:  19.6
      thresh= 2.524E-05 alpha_mix =  0.700 |ddv_scf|^2 =  8.306E-09

      iter #   3 total cpu time :   127.4 secs   av.it.:  19.2
      thresh= 9.114E-06 alpha_mix =  0.700 |ddv_scf|^2 =  1.656E-10

      iter #   4 total cpu time :   132.2 secs   av.it.:  19.1
      thresh= 1.287E-06 alpha_mix =  0.700 |ddv_scf|^2 =  2.007E-12

      iter #   5 total cpu time :   136.9 secs   av.it.:  19.2
      thresh= 1.417E-07 alpha_mix =  0.700 |ddv_scf|^2 =  1.500E-13

     End of self-consistent calculation

     Convergence has been achieved 


     Representation #  5 modes #  13 14 15

     Self-consistent Calculation

      iter #   1 total cpu time :   142.0 secs   av.it.:   8.3
      thresh= 1.000E-02 alpha_mix =  0.700 |ddv_scf|^2 =  4.016E-08

      iter #   2 total cpu time :   147.3 secs   av.it.:  19.1
      thresh= 2.004E-05 alpha_mix =  0.700 |ddv_scf|^2 =  2.083E-10

      iter #   3 total cpu time :   152.4 secs   av.it.:  19.1
      thresh= 1.443E-06 alpha_mix =  0.700 |ddv_scf|^2 =  4.152E-12

      iter #   4 total cpu time :   157.7 secs   av.it.:  17.0
      thresh= 2.038E-07 alpha_mix =  0.700 |ddv_scf|^2 =  3.440E-15

     End of self-consistent calculation

     Convergence has been achieved 
 
     Number of q in the star =    1
     List of q in the star:
          1   0.000000000   0.000000000   0.000000000

          Dielectric constant in cartesian axis 

          (       6.516983780      -0.000000000       0.000000000 )
          (       0.000000000       6.516983780       0.000000000 )
          (       0.000000000      -0.000000000       6.516983780 )

          Effective charges (d Force / dE) in cartesian axis

           atom      1   Ba 
      Ex  (        2.52954        0.00000        0.00000 )
      Ey  (       -0.00000        2.52954        0.00000 )
      Ez  (       -0.00000        0.00000        2.52954 )
           atom      2   Ti 
      Ex  (        7.32340       -0.00000        0.00000 )
      Ey  (        0.00000        7.32340       -0.00000 )
      Ez  (        0.00000        0.00000        7.32340 )
           atom      3   O  
      Ex  (       -5.75594        0.00000        0.00000 )
      Ey  (       -0.00000       -2.14551       -0.00000 )
      Ez  (       -0.00000       -0.00000       -2.14551 )
           atom      4   O  
      Ex  (       -2.14551       -0.00000        0.00000 )
      Ey  (        0.00000       -5.75594        0.00000 )
      Ez  (        0.00000        0.00000       -2.14551 )
           atom      5   O  
      Ex  (       -2.14551       -0.00000        0.00000 )
      Ey  (        0.00000       -2.14551        0.00000 )
      Ez  (        0.00000        0.00000       -5.75594 )

          Effective charges (d P / du) in cartesian axis 

           atom      1   Ba 
      Px  (        2.77444        0.00000       -0.00000 )
      Py  (       -0.00000        2.77444       -0.00000 )
      Pz  (       -0.00000       -0.00000        2.77444 )
           atom      2   Ti 
      Px  (        7.29061        0.00000       -0.00000 )
      Py  (        0.00000        7.29061        0.00000 )
      Pz  (       -0.00000        0.00000        7.29061 )
           atom      3   O  
      Px  (       -5.75211       -0.00000        0.00000 )
      Py  (        0.00000       -2.15160        0.00000 )
      Pz  (        0.00000       -0.00000       -2.15160 )
           atom      4   O  
      Px  (       -2.15160       -0.00000        0.00000 )
      Py  (       -0.00000       -5.75211       -0.00000 )
      Pz  (        0.00000       -0.00000       -2.15160 )
           atom      5   O  
      Px  (       -2.15160        0.00000        0.00000 )
      Py  (       -0.00000       -2.15160       -0.00000 )
      Pz  (        0.00000       -0.00000       -5.75211 )

     Diagonalizing the dynamical matrix

     q = (    0.000000000   0.000000000   0.000000000 ) 

 **************************************************************************
     freq (    1) =      -4.492882 [THz] =    -149.866417 [cm-1]
     freq (    2) =      -4.492882 [THz] =    -149.866417 [cm-1]
     freq (    3) =      -4.492882 [THz] =    -149.866417 [cm-1]
     freq (    4) =       0.544587 [THz] =      18.165478 [cm-1]
     freq (    5) =       0.544587 [THz] =      18.165478 [cm-1]
     freq (    6) =       0.544587 [THz] =      18.165478 [cm-1]
     freq (    7) =       4.183975 [THz] =     139.562389 [cm-1]
     freq (    8) =       4.183975 [THz] =     139.562389 [cm-1]
     freq (    9) =       4.183975 [THz] =     139.562389 [cm-1]
     freq (   10) =       8.242412 [THz] =     274.937254 [cm-1]
     freq (   11) =       8.242412 [THz] =     274.937254 [cm-1]
     freq (   12) =       8.242412 [THz] =     274.937254 [cm-1]
     freq (   13) =      14.353970 [THz] =     478.796912 [cm-1]
     freq (   14) =      14.353970 [THz] =     478.796912 [cm-1]
     freq (   15) =      14.353970 [THz] =     478.796912 [cm-1]
 **************************************************************************

     Mode symmetry, O_h (m-3m)  point group:

     freq (  1 -  3) =       -149.9  [cm-1]   --> T_1u G_15  G_4- I  
     freq (  4 -  6) =         18.2  [cm-1]   --> T_1u G_15  G_4- I  
     freq (  7 -  9) =        139.6  [cm-1]   --> T_1u G_15  G_4- I  
     freq ( 10 - 12) =        274.9  [cm-1]   --> T_2u G_25  G_5-    
     freq ( 13 - 15) =        478.8  [cm-1]   --> T_1u G_15  G_4- I  

     Calculation of q =    0.0000000   0.0000000   0.2500000

   Info: using nr1, nr2, nr3 values from input

   Info: using nr1, nr2, nr3 values from input
 
     Parallelization info
     --------------------
     sticks:   dense  smooth     PW     G-vecs:    dense   smooth      PW
     Min         128      63     18                 5810     2051     316
     Max         129      64     19                 5814     2058     321
     Sum        3593    1789    517               162747    57555    8925
 


     bravais-lattice index     =            1
     lattice parameter (alat)  =       7.5234  a.u.
     unit-cell volume          =     425.8418 (a.u.)^3
     number of atoms/cell      =            5
     number of atomic types    =            3
     number of electrons       =        40.00
     number of Kohn-Sham states=           24
     kinetic-energy cutoff     =     100.0000  Ry
     charge density cutoff     =     800.0000  Ry
     Exchange-correlation      =  SLA  PW   PBE  PBE ( 1  4  3  4 0 0)

     celldm(1)=   7.523434  celldm(2)=   0.000000  celldm(3)=   0.000000
     celldm(4)=   0.000000  celldm(5)=   0.000000  celldm(6)=   0.000000

     crystal axes: (cart. coord. in units of alat)
               a(1) = (   1.000000   0.000000   0.000000 )  
               a(2) = (   0.000000   1.000000   0.000000 )  
               a(3) = (   0.000000   0.000000   1.000000 )  

     reciprocal axes: (cart. coord. in units 2 pi/alat)
               b(1) = (  1.000000  0.000000  0.000000 )  
               b(2) = (  0.000000  1.000000  0.000000 )  
               b(3) = (  0.000000  0.000000  1.000000 )  


     PseudoPot. # 1 for O  read from file:
     ../../PSP_DIR/O.pbe-rrkjus.UPF
     MD5 check sum: 390ba29e75625707450f3bd3f0eb6be9
     Pseudo is Ultrasoft, Zval =  6.0
     Generated by new atomic code, or converted to UPF format
     Using radial grid of 1269 points,  4 beta functions with: 
                l(1) =   0
                l(2) =   0
                l(3) =   1
                l(4) =   1
     Q(r) pseudized with 0 coefficients 


     PseudoPot. # 2 for Ti read from file:
     ../../PSP_DIR/Ti.pbe-sp-van_ak.UPF
     MD5 check sum: 8e4df49b7f0d34bbd5052bf3f5ea0213
     Pseudo is Ultrasoft, Zval = 12.0
     Generated by new atomic code, or converted to UPF format
     Using radial grid of  851 points,  6 beta functions with: 
                l(1) =   0
                l(2) =   0
                l(3) =   1
                l(4) =   1
                l(5) =   2
                l(6) =   2
     Q(r) pseudized with  8 coefficients,  rinner =    1.000   1.000   1.000
                                                       1.000   1.000

     PseudoPot. # 3 for Ba read from file:
     ../../PSP_DIR/Ba.pbe-nsp-van.UPF
     MD5 check sum: a011de417d3466d8e94df216395bc359
     Pseudo is Ultrasoft + core correction, Zval = 10.0
     Generated by new atomic code, or converted to UPF format
     Using radial grid of  907 points,  6 beta functions with: 
                l(1) =   0
                l(2) =   0
                l(3) =   1
                l(4) =   1
                l(5) =   2
                l(6) =   2
     Q(r) pseudized with  6 coefficients,  rinner =    1.200   1.200   1.200
                                                       1.200   1.200

     atomic species   valence    mass     pseudopotential
        O              6.00    15.99000     O ( 1.00)
        Ti            12.00    47.88000     Ti( 1.00)
        Ba            10.00   137.33000     Ba( 1.00)

     48 Sym. Ops., with inversion, found



   Cartesian axes

     site n.     atom                  positions (alat units)
         1           Ba  tau(   1) = (   0.0000000   0.0000000   0.0000000  )
         2           Ti  tau(   2) = (   0.5000000   0.5000000   0.5000000  )
         3           O   tau(   3) = (   0.0000000   0.5000000   0.5000000  )
         4           O   tau(   4) = (   0.5000000   0.0000000   0.5000000  )
         5           O   tau(   5) = (   0.5000000   0.5000000   0.0000000  )

     number of k points=    72
                       cart. coord. in units 2pi/alat
        k(    1) = (   0.0833333   0.0833333   0.0833333), wk =   0.0370370
        k(    2) = (   0.0833333   0.0833333   0.3333333), wk =   0.0000000
        k(    3) = (   0.0833333   0.0833333   0.2500000), wk =   0.0370370
        k(    4) = (   0.0833333   0.0833333   0.5000000), wk =   0.0000000
        k(    5) = (   0.0833333   0.0833333   0.4166667), wk =   0.0370370
        k(    6) = (   0.0833333   0.0833333   0.6666667), wk =   0.0000000
        k(    7) = (   0.0833333   0.2500000   0.2500000), wk =   0.0740741
        k(    8) = (   0.0833333   0.2500000   0.5000000), wk =   0.0000000
        k(    9) = (   0.0833333   0.2500000   0.4166667), wk =   0.0740741
        k(   10) = (   0.0833333   0.2500000   0.6666667), wk =   0.0000000
        k(   11) = (   0.0833333   0.4166667   0.4166667), wk =   0.0740741
        k(   12) = (   0.0833333   0.4166667   0.6666667), wk =   0.0000000
        k(   13) = (   0.2500000   0.2500000   0.2500000), wk =   0.0370370
        k(   14) = (   0.2500000   0.2500000   0.5000000), wk =   0.0000000
        k(   15) = (   0.2500000   0.2500000   0.4166667), wk =   0.0370370
        k(   16) = (   0.2500000   0.2500000   0.6666667), wk =   0.0000000
        k(   17) = (   0.2500000   0.4166667   0.4166667), wk =   0.0740741
        k(   18) = (   0.2500000   0.4166667   0.6666667), wk =   0.0000000
        k(   19) = (   0.4166667   0.4166667   0.4166667), wk =   0.0370370
        k(   20) = (   0.4166667   0.4166667   0.6666667), wk =   0.0000000
        k(   21) = (   0.0833333   0.0833333  -0.0833333), wk =   0.0370370
        k(   22) = (   0.0833333   0.0833333   0.1666667), wk =   0.0000000
        k(   23) = (   0.0833333   0.2500000   0.0833333), wk =   0.0740741
        k(   24) = (   0.0833333   0.2500000   0.3333333), wk =   0.0000000
        k(   25) = (   0.0833333   0.0833333  -0.2500000), wk =   0.0370370
        k(   26) = (   0.0833333   0.0833333   0.0000000), wk =   0.0000000
        k(   27) = (  -0.0833333  -0.2500000  -0.0833333), wk =   0.0740741
        k(   28) = (  -0.0833333  -0.2500000   0.1666667), wk =   0.0000000
        k(   29) = (   0.0833333   0.4166667   0.0833333), wk =   0.0740741
        k(   30) = (   0.0833333   0.4166667   0.3333333), wk =   0.0000000
        k(   31) = (   0.0833333   0.0833333  -0.4166667), wk =   0.0370370
        k(   32) = (   0.0833333   0.0833333  -0.1666667), wk =   0.0000000
        k(   33) = (  -0.0833333  -0.4166667  -0.0833333), wk =   0.0740741
        k(   34) = (  -0.0833333  -0.4166667   0.1666667), wk =   0.0000000
        k(   35) = (   0.2500000   0.0833333  -0.2500000), wk =   0.0740741
        k(   36) = (   0.2500000   0.0833333   0.0000000), wk =   0.0000000
        k(   37) = (   0.2500000   0.2500000   0.0833333), wk =   0.0370370
        k(   38) = (   0.2500000   0.2500000   0.3333333), wk =   0.0000000
        k(   39) = (  -0.2500000   0.2500000  -0.0833333), wk =   0.0370370
        k(   40) = (  -0.2500000   0.2500000   0.1666667), wk =   0.0000000
        k(   41) = (   0.0833333   0.4166667   0.2500000), wk =   0.0740741
        k(   42) = (   0.0833333   0.4166667   0.5000000), wk =   0.0000000
        k(   43) = (   0.2500000   0.0833333  -0.4166667), wk =   0.0740741
        k(   44) = (   0.2500000   0.0833333  -0.1666667), wk =   0.0000000
        k(   45) = (  -0.0833333  -0.4166667  -0.2500000), wk =   0.0740741
        k(   46) = (  -0.0833333  -0.4166667   0.0000000), wk =   0.0000000
        k(   47) = (   0.4166667   0.2500000   0.0833333), wk =   0.0740741
        k(   48) = (   0.4166667   0.2500000   0.3333333), wk =   0.0000000
        k(   49) = (  -0.2500000   0.4166667  -0.0833333), wk =   0.0740741
        k(   50) = (  -0.2500000   0.4166667   0.1666667), wk =   0.0000000
        k(   51) = (   0.4166667   0.0833333  -0.4166667), wk =   0.0740741
        k(   52) = (   0.4166667   0.0833333  -0.1666667), wk =   0.0000000
        k(   53) = (   0.4166667   0.4166667   0.0833333), wk =   0.0370370
        k(   54) = (   0.4166667   0.4166667   0.3333333), wk =   0.0000000
        k(   55) = (  -0.4166667   0.4166667  -0.0833333), wk =   0.0370370
        k(   56) = (  -0.4166667   0.4166667   0.1666667), wk =   0.0000000
        k(   57) = (   0.2500000   0.2500000  -0.2500000), wk =   0.0370370
        k(   58) = (   0.2500000   0.2500000   0.0000000), wk =   0.0000000
        k(   59) = (   0.2500000   0.4166667   0.2500000), wk =   0.0740741
        k(   60) = (   0.2500000   0.4166667   0.5000000), wk =   0.0000000
        k(   61) = (   0.2500000   0.2500000  -0.4166667), wk =   0.0370370
        k(   62) = (   0.2500000   0.2500000  -0.1666667), wk =   0.0000000
        k(   63) = (  -0.2500000  -0.4166667  -0.2500000), wk =   0.0740741
        k(   64) = (  -0.2500000  -0.4166667   0.0000000), wk =   0.0000000
        k(   65) = (   0.4166667   0.2500000  -0.4166667), wk =   0.0740741
        k(   66) = (   0.4166667   0.2500000  -0.1666667), wk =   0.0000000
        k(   67) = (   0.4166667   0.4166667   0.2500000), wk =   0.0370370
        k(   68) = (   0.4166667   0.4166667   0.5000000), wk =   0.0000000
        k(   69) = (  -0.4166667   0.4166667  -0.2500000), wk =   0.0370370
        k(   70) = (  -0.4166667   0.4166667   0.0000000), wk =   0.0000000
        k(   71) = (   0.4166667   0.4166667  -0.4166667), wk =   0.0370370
        k(   72) = (   0.4166667   0.4166667  -0.1666667), wk =   0.0000000

     Dense  grid:   162747 G-vectors     FFT dimensions: (  72,  72,  72)

     Smooth grid:    57555 G-vectors     FFT dimensions: (  48,  48,  48)

     Estimated max dynamical RAM per process >       5.59MB

     Estimated total allocated dynamical RAM >     156.45MB

     The potential is recalculated from file :
     ./_ph0/bto.save/charge-density.dat

     Starting wfc are   35 atomic wfcs

     Band Structure Calculation
     Davidson diagonalization with overlap

     ethr =  2.50E-11,  avg # of iterations = 18.3

     total cpu time spent up to now is        8.3 secs

     End of band structure calculation

          k = 0.0833 0.0833 0.0833 (  7174 PWs)   bands (ev):

   -46.0472 -22.2872 -22.2869 -22.2869 -14.0075  -6.3570  -5.6899  -5.6899
     0.7762   0.7762   0.9025   7.8898   8.0834   8.0834   8.9193   8.9193
     9.2846   9.8614  10.1657  10.1657  12.5403  12.5907  12.5907  14.8478

          k = 0.0833 0.0833 0.3333 (  7178 PWs)   bands (ev):

   -46.0464 -22.3250 -22.2855 -22.2853 -13.9211  -6.4664  -5.6677  -5.5139
     0.8534   0.9020   1.1302   6.8160   7.7361   7.8392   8.2161   8.3801
     9.1049   9.1297   9.7056   9.7498  12.6309  13.6751  13.6839  14.8447

          k = 0.0833 0.0833 0.2500 (  7174 PWs)   bands (ev):

   -46.0467 -22.3111 -22.2860 -22.2859 -13.9531  -6.4026  -5.6758  -5.6077
     0.8249   0.8300   1.0748   7.2176   7.8550   7.9474   8.5040   8.5115
     9.2041   9.2326   9.8808   9.8881  12.6082  13.2909  13.2957  14.8469

          k = 0.0833 0.0833 0.5000 (  7180 PWs)   bands (ev):

   -46.0462 -22.3388 -22.2849 -22.2848 -13.8885  -6.5446  -5.6595  -5.3988
     0.8822   1.0126   1.1444   6.4145   7.6765   7.7221   7.8593   8.2865
     9.0051   9.1770   9.4652   9.6208  12.6533  14.0552  14.0603  14.8394

          k = 0.0833 0.0833 0.4167 (  7183 PWs)   bands (ev):

   -46.0462 -22.3351 -22.2850 -22.2849 -13.8973  -6.5227  -5.6617  -5.4313
     0.8745   0.9761   1.1477   6.5219   7.6769   7.7537   7.9690   8.3100
     9.0312   9.1445   9.5443   9.6547  12.6473  13.9532  13.9602  14.8413

          k = 0.0833 0.0833 0.6667 (  7178 PWs)   bands (ev):

   -46.0464 -22.3250 -22.2855 -22.2853 -13.9211  -6.4664  -5.6677  -5.5139
     0.8534   0.9020   1.1302   6.8160   7.7361   7.8392   8.2161   8.3801
     9.1049   9.1297   9.7056   9.7498  12.6309  13.6751  13.6839  14.8447

          k = 0.0833 0.2500 0.2500 (  7191 PWs)   bands (ev):

   -46.0462 -22.3103 -22.3095 -22.2850 -13.9072  -6.3094  -5.6550  -5.6080
     0.7368   0.8406   1.1667   6.9336   7.4253   7.6998   8.0181   8.3145
     8.8338   9.4586   9.5350   9.9679  13.2662  13.3907  13.6342  15.3342

          k = 0.0833 0.2500 0.5000 (  7204 PWs)   bands (ev):

   -46.0457 -22.3373 -22.3084 -22.2839 -13.8529  -6.3103  -5.6174  -5.4954
     0.7517   0.9185   1.0776   6.3508   7.0806   7.2604   7.7458   8.1422
     8.9471   9.2445   9.4096   9.9492  13.3673  14.0836  14.2055  15.4303

          k = 0.0833 0.2500 0.4167 (  7196 PWs)   bands (ev):

   -46.0458 -22.3336 -22.3086 -22.2841 -13.8602  -6.3037  -5.6234  -5.5172
     0.7471   0.8928   1.1081   6.4463   7.1185   7.3045   7.7894   8.1524
     8.9116   9.2671   9.4408   9.9634  13.3608  13.9852  14.1193  15.4254

          k = 0.0833 0.2500 0.6667 (  7199 PWs)   bands (ev):

   -46.0460 -22.3236 -22.3092 -22.2845 -13.8802  -6.2951  -5.6393  -5.5660
     0.7366   0.8588   1.1522   6.6833   7.2343   7.4497   7.8974   8.1988
     8.8402   9.3670   9.4766   9.9841  13.3405  13.7178  13.8988  15.4026

          k = 0.0833 0.4167 0.4167 (  7204 PWs)   bands (ev):

   -46.0453 -22.3322 -22.3320 -22.2832 -13.8224  -6.0708  -5.6164  -5.5759
     0.6912   0.7408   1.0926   6.2750   6.6891   6.6940   7.8387   7.8933
     8.6353   9.4812   9.6186  10.3122  13.9951  14.0269  14.4141  15.6058

          k = 0.0833 0.4167 0.6667 (  7202 PWs)   bands (ev):

   -46.0455 -22.3328 -22.3222 -22.2836 -13.8385  -6.1705  -5.6163  -5.5543
     0.7080   0.8073   1.1005   6.3831   6.8505   6.9227   7.8186   8.0053
     8.7670   9.3394   9.5479  10.1900  13.7373  14.0024  14.2718  15.5553

          k = 0.2500 0.2500 0.2500 (  7199 PWs)   bands (ev):

   -46.0458 -22.3094 -22.3084 -22.3084 -13.8669  -6.1563  -5.6115  -5.6115
     0.6034   0.6034   1.2156   6.7401   7.3961   7.3961   7.9321   8.1463
     8.1463   9.7625   9.7625   9.7664  13.7093  13.7333  13.7333  16.5314

          k = 0.2500 0.2500 0.5000 (  7172 PWs)   bands (ev):

   -46.0452 -22.3359 -22.3077 -22.3072 -13.8193  -6.0729  -5.5595  -5.5098
     0.4492   0.6476   0.9319   6.3200   7.1866   7.2737   7.3725   8.0925
     8.3330   9.5396   9.8804   9.8988  13.8228  14.2705  14.3007  16.4923

          k = 0.2500 0.2500 0.4167 (  7201 PWs)   bands (ev):

   -46.0453 -22.3323 -22.3079 -22.3073 -13.8258  -6.0767  -5.5666  -5.5317
     0.4699   0.6119   1.0005   6.4147   7.1046   7.3747   7.4292   8.0946
     8.2918   9.5691   9.8781   9.8907  13.8101  14.1880  14.2189  16.4995

          k = 0.2500 0.2500 0.6667 (  7185 PWs)   bands (ev):

   -46.0455 -22.3224 -22.3084 -22.3078 -13.8432  -6.0987  -5.5857  -5.5784
     0.5263   0.5780   1.1232   6.6119   7.1460   7.3824   7.6617   8.1076
     8.1990   9.6501   9.8495   9.8545  13.7745  13.9802  14.0019  16.5156

          k = 0.2500 0.4167 0.4167 (  7195 PWs)   bands (ev):

   -46.0448 -22.3310 -22.3308 -22.3066 -13.7907  -5.8325  -5.5432  -5.5192
     0.3641   0.3925   0.6928   6.2637   6.6931   7.2858   7.4523   8.0556
     8.1247   9.8037   9.8940  10.2849  14.2836  14.2969  14.5110  16.8488

          k = 0.2500 0.4167 0.6667 (  7202 PWs)   bands (ev):

   -46.0450 -22.3315 -22.3211 -22.3070 -13.8056  -5.9379  -5.5490  -5.5278
     0.3872   0.4775   0.8478   6.3737   6.8993   7.2339   7.4532   8.0801
     8.1794   9.6985   9.8770  10.1336  14.0813  14.2528  14.3684  16.7895

          k = 0.4167 0.4167 0.4167 (  7196 PWs)   bands (ev):

   -46.0444 -22.3299 -22.3297 -22.3297 -13.7584  -5.5740  -5.4658  -5.4658
     0.1096   0.1096   0.2623   6.1117   6.6991   6.6991   7.8923   8.1379
     8.1379  10.2214  10.2214  10.2991  14.6156  14.6156  14.6187  17.7022

          k = 0.4167 0.4167 0.6667 (  7207 PWs)   bands (ev):

   -46.0446 -22.3303 -22.3302 -22.3200 -13.7721  -5.6869  -5.4991  -5.4871
     0.1969   0.2276   0.4553   6.2161   6.6964   6.9492   7.6644   8.1110
     8.1306  10.0366  10.0889  10.2769  14.4689  14.4718  14.5710  17.4313

          k = 0.0833 0.0833-0.0833 (  7174 PWs)   bands (ev):

   -46.0472 -22.2872 -22.2869 -22.2869 -14.0075  -6.3570  -5.6899  -5.6899
     0.7762   0.7762   0.9025   7.8898   8.0834   8.0834   8.9193   8.9193
     9.2846   9.8614  10.1657  10.1657  12.5403  12.5907  12.5907  14.8478

          k = 0.0833 0.0833 0.1667 (  7154 PWs)   bands (ev):

   -46.0470 -22.2972 -22.2866 -22.2864 -13.9847  -6.3634  -5.6840  -5.6703
     0.7840   0.7967   0.9911   7.6151   7.9816   8.0351   8.6931   8.7600
     9.2824   9.5166  10.0390  10.0404  12.5844  12.8862  12.8946  14.8477

          k = 0.0833 0.2500 0.0833 (  7174 PWs)   bands (ev):

   -46.0467 -22.3111 -22.2860 -22.2859 -13.9531  -6.4026  -5.6758  -5.6077
     0.8249   0.8300   1.0748   7.2176   7.8550   7.9474   8.5040   8.5115
     9.2041   9.2326   9.8808   9.8881  12.6082  13.2909  13.2957  14.8469

          k = 0.0833 0.2500 0.3333 (  7199 PWs)   bands (ev):

   -46.0460 -22.3236 -22.3092 -22.2845 -13.8802  -6.2951  -5.6393  -5.5660
     0.7366   0.8588   1.1522   6.6833   7.2343   7.4497   7.8974   8.1988
     8.8402   9.3670   9.4766   9.9841  13.3405  13.7178  13.8988  15.4026

          k = 0.0833 0.0833-0.2500 (  7174 PWs)   bands (ev):

   -46.0467 -22.3111 -22.2860 -22.2859 -13.9531  -6.4026  -5.6758  -5.6077
     0.8249   0.8300   1.0748   7.2176   7.8550   7.9474   8.5040   8.5115
     9.2041   9.2326   9.8808   9.8881  12.6082  13.2909  13.2957  14.8469

          k = 0.0833 0.0833 0.0000 (  7143 PWs)   bands (ev):

   -46.0472 -22.2872 -22.2870 -22.2832 -14.0158  -6.3600  -5.6921  -5.6909
     0.7688   0.7934   0.8498   7.9710   8.0980   8.1392   8.9759   9.0679
     9.2265  10.0112  10.2157  10.2277  12.4330  12.4753  12.5681  14.6343

          k =-0.0833-0.2500-0.0833 (  7174 PWs)   bands (ev):

   -46.0467 -22.3111 -22.2860 -22.2859 -13.9531  -6.4026  -5.6758  -5.6077
     0.8249   0.8300   1.0748   7.2176   7.8550   7.9474   8.5040   8.5115
     9.2041   9.2326   9.8808   9.8881  12.6082  13.2909  13.2957  14.8469

          k =-0.0833-0.2500 0.1667 (  7184 PWs)   bands (ev):

   -46.0465 -22.3106 -22.2961 -22.2856 -13.9338  -6.3541  -5.6645  -5.6211
     0.7670   0.8321   1.1381   7.1117   7.6611   7.8877   8.2161   8.4457
     8.9994   9.3721   9.7254   9.9048  12.9190  13.3152  13.4168  15.1533

          k = 0.0833 0.4167 0.0833 (  7183 PWs)   bands (ev):

   -46.0462 -22.3351 -22.2850 -22.2849 -13.8973  -6.5227  -5.6617  -5.4313
     0.8745   0.9761   1.1477   6.5219   7.6769   7.7537   7.9690   8.3100
     9.0312   9.1445   9.5443   9.6547  12.6473  13.9532  13.9602  14.8413

          k = 0.0833 0.4167 0.3333 (  7202 PWs)   bands (ev):

   -46.0455 -22.3328 -22.3222 -22.2836 -13.8385  -6.1705  -5.6163  -5.5543
     0.7080   0.8073   1.1005   6.3831   6.8505   6.9227   7.8186   8.0053
     8.7670   9.3394   9.5479  10.1900  13.7373  14.0024  14.2718  15.5553

          k = 0.0833 0.0833-0.4167 (  7183 PWs)   bands (ev):

   -46.0462 -22.3351 -22.2850 -22.2849 -13.8973  -6.5227  -5.6617  -5.4313
     0.8745   0.9761   1.1477   6.5219   7.6769   7.7537   7.9690   8.3100
     9.0312   9.1445   9.5443   9.6547  12.6473  13.9532  13.9602  14.8413

          k = 0.0833 0.0833-0.1667 (  7154 PWs)   bands (ev):

   -46.0470 -22.2972 -22.2866 -22.2864 -13.9847  -6.3634  -5.6840  -5.6703
     0.7840   0.7967   0.9911   7.6151   7.9816   8.0351   8.6931   8.7600
     9.2824   9.5166  10.0390  10.0404  12.5844  12.8862  12.8946  14.8477

          k =-0.0833-0.4167-0.0833 (  7183 PWs)   bands (ev):

   -46.0462 -22.3351 -22.2850 -22.2849 -13.8973  -6.5227  -5.6617  -5.4313
     0.8745   0.9761   1.1477   6.5219   7.6769   7.7537   7.9690   8.3100
     9.0312   9.1445   9.5443   9.6547  12.6473  13.9532  13.9602  14.8413

          k =-0.0833-0.4167 0.1667 (  7180 PWs)   bands (ev):

   -46.0460 -22.3345 -22.2950 -22.2846 -13.8817  -6.4319  -5.6432  -5.4693
     0.8067   0.9613   1.1211   6.4890   7.4549   7.6500   7.7765   8.2520
     9.0339   9.2508   9.4834   9.6528  12.9628  13.9680  14.0112  15.1683

          k = 0.2500 0.0833-0.2500 (  7191 PWs)   bands (ev):

   -46.0462 -22.3103 -22.3095 -22.2850 -13.9072  -6.3094  -5.6550  -5.6080
     0.7368   0.8406   1.1667   6.9336   7.4253   7.6998   8.0181   8.3145
     8.8338   9.4586   9.5350   9.9679  13.2662  13.3907  13.6342  15.3342

          k = 0.2500 0.0833 0.0000 (  7166 PWs)   bands (ev):

   -46.0468 -22.3113 -22.2861 -22.2822 -13.9601  -6.4229  -5.6808  -5.5989
     0.8260   0.8730   1.0274   7.2532   7.9074   7.9909   8.5098   8.7237
     9.0394   9.3070   9.9277   9.9454  12.4867  13.2577  13.2859  14.6796

          k = 0.2500 0.2500 0.0833 (  7191 PWs)   bands (ev):

   -46.0462 -22.3103 -22.3095 -22.2850 -13.9072  -6.3094  -5.6550  -5.6080
     0.7368   0.8406   1.1667   6.9336   7.4253   7.6998   8.0181   8.3145
     8.8338   9.4586   9.5350   9.9679  13.2662  13.3907  13.6342  15.3342

          k = 0.2500 0.2500 0.3333 (  7185 PWs)   bands (ev):

   -46.0455 -22.3224 -22.3084 -22.3078 -13.8432  -6.0987  -5.5857  -5.5784
     0.5263   0.5780   1.1232   6.6119   7.1460   7.3824   7.6617   8.1076
     8.1990   9.6501   9.8495   9.8545  13.7745  13.9802  14.0019  16.5156

          k =-0.2500 0.2500-0.0833 (  7191 PWs)   bands (ev):

   -46.0462 -22.3103 -22.3095 -22.2850 -13.9072  -6.3094  -5.6550  -5.6080
     0.7368   0.8406   1.1667   6.9336   7.4253   7.6998   8.0181   8.3145
     8.8338   9.4586   9.5350   9.9679  13.2662  13.3907  13.6342  15.3342

          k =-0.2500 0.2500 0.1667 (  7191 PWs)   bands (ev):

   -46.0460 -22.3098 -22.3090 -22.2951 -13.8903  -6.2390  -5.6368  -5.6162
     0.6804   0.6970   1.2337   6.8391   7.4124   7.5938   8.0444   8.2207
     8.4358   9.6196   9.6313   9.8794  13.4487  13.5237  13.6733  15.8879

          k = 0.0833 0.4167 0.2500 (  7196 PWs)   bands (ev):

   -46.0458 -22.3336 -22.3086 -22.2841 -13.8602  -6.3037  -5.6234  -5.5172
     0.7471   0.8928   1.1081   6.4463   7.1185   7.3045   7.7894   8.1524
     8.9116   9.2671   9.4408   9.9634  13.3608  13.9852  14.1193  15.4254

          k = 0.0833 0.4167 0.5000 (  7204 PWs)   bands (ev):

   -46.0452 -22.3357 -22.3319 -22.2831 -13.8165  -6.0347  -5.6049  -5.5945
     0.6898   0.7137   1.0889   6.2086   6.6314   6.6416   7.8181   7.8815
     8.5828   9.5879   9.5991  10.3492  14.0151  14.1099  14.4733  15.6180

          k = 0.2500 0.0833-0.4167 (  7196 PWs)   bands (ev):

   -46.0458 -22.3336 -22.3086 -22.2841 -13.8602  -6.3037  -5.6234  -5.5172
     0.7471   0.8928   1.1081   6.4463   7.1185   7.3045   7.7894   8.1524
     8.9116   9.2671   9.4408   9.9634  13.3608  13.9852  14.1193  15.4254

          k = 0.2500 0.0833-0.1667 (  7184 PWs)   bands (ev):

   -46.0465 -22.3106 -22.2961 -22.2856 -13.9338  -6.3541  -5.6645  -5.6211
     0.7670   0.8321   1.1381   7.1117   7.6611   7.8877   8.2161   8.4457
     8.9994   9.3721   9.7254   9.9048  12.9190  13.3152  13.4168  15.1533

          k =-0.0833-0.4167-0.2500 (  7196 PWs)   bands (ev):

   -46.0458 -22.3336 -22.3086 -22.2841 -13.8602  -6.3037  -5.6234  -5.5172
     0.7471   0.8928   1.1081   6.4463   7.1185   7.3045   7.7894   8.1524
     8.9116   9.2671   9.4408   9.9634  13.3608  13.9852  14.1193  15.4254

          k =-0.0833-0.4167 0.0000 (  7181 PWs)   bands (ev):

   -46.0463 -22.3353 -22.2851 -22.2813 -13.9029  -6.5553  -5.6689  -5.4172
     0.9204   0.9563   1.1628   6.5354   7.7175   7.7556   8.0943   8.5467
     8.6930   9.1197   9.6812   9.6979  12.5242  13.9428  13.9520  14.6808

          k = 0.4167 0.2500 0.0833 (  7196 PWs)   bands (ev):

   -46.0458 -22.3336 -22.3086 -22.2841 -13.8602  -6.3037  -5.6234  -5.5172
     0.7471   0.8928   1.1081   6.4463   7.1185   7.3045   7.7894   8.1524
     8.9116   9.2671   9.4408   9.9634  13.3608  13.9852  14.1193  15.4254

          k = 0.4167 0.2500 0.3333 (  7202 PWs)   bands (ev):

   -46.0450 -22.3315 -22.3211 -22.3070 -13.8056  -5.9379  -5.5490  -5.5278
     0.3872   0.4775   0.8478   6.3737   6.8993   7.2339   7.4532   8.0801
     8.1794   9.6985   9.8770  10.1336  14.0813  14.2528  14.3684  16.7895

          k =-0.2500 0.4167-0.0833 (  7196 PWs)   bands (ev):

   -46.0458 -22.3336 -22.3086 -22.2841 -13.8602  -6.3037  -5.6234  -5.5172
     0.7471   0.8928   1.1081   6.4463   7.1185   7.3045   7.7894   8.1524
     8.9116   9.2671   9.4408   9.9634  13.3608  13.9852  14.1193  15.4254

          k =-0.2500 0.4167 0.1667 (  7203 PWs)   bands (ev):

   -46.0456 -22.3331 -22.3082 -22.2940 -13.8457  -6.2096  -5.5983  -5.5238
     0.6072   0.7575   1.0983   6.4315   7.1128   7.3475   7.7094   8.1076
     8.5411   9.4535   9.5914   9.9204  13.5476  14.0667  14.1565  15.9512

          k = 0.4167 0.0833-0.4167 (  7204 PWs)   bands (ev):

   -46.0453 -22.3322 -22.3320 -22.2832 -13.8224  -6.0708  -5.6164  -5.5759
     0.6912   0.7408   1.0926   6.2750   6.6891   6.6940   7.8387   7.8933
     8.6353   9.4812   9.6186  10.3122  13.9951  14.0269  14.4141  15.6058

          k = 0.4167 0.0833-0.1667 (  7180 PWs)   bands (ev):

   -46.0460 -22.3345 -22.2950 -22.2846 -13.8817  -6.4319  -5.6432  -5.4693
     0.8067   0.9613   1.1211   6.4890   7.4549   7.6500   7.7765   8.2520
     9.0339   9.2508   9.4834   9.6528  12.9628  13.9680  14.0112  15.1683

          k = 0.4167 0.4167 0.0833 (  7204 PWs)   bands (ev):

   -46.0453 -22.3322 -22.3320 -22.2832 -13.8224  -6.0708  -5.6164  -5.5759
     0.6912   0.7408   1.0926   6.2750   6.6891   6.6940   7.8387   7.8933
     8.6353   9.4812   9.6186  10.3122  13.9951  14.0269  14.4141  15.6058

          k = 0.4167 0.4167 0.3333 (  7207 PWs)   bands (ev):

   -46.0446 -22.3303 -22.3302 -22.3200 -13.7721  -5.6869  -5.4991  -5.4871
     0.1969   0.2276   0.4553   6.2161   6.6964   6.9492   7.6644   8.1110
     8.1306  10.0366  10.0889  10.2769  14.4689  14.4718  14.5710  17.4313

          k =-0.4167 0.4167-0.0833 (  7204 PWs)   bands (ev):

   -46.0453 -22.3322 -22.3320 -22.2832 -13.8224  -6.0708  -5.6164  -5.5759
     0.6912   0.7408   1.0926   6.2750   6.6891   6.6940   7.8387   7.8933
     8.6353   9.4812   9.6186  10.3122  13.9951  14.0269  14.4141  15.6058

          k =-0.4167 0.4167 0.1667 (  7195 PWs)   bands (ev):

   -46.0451 -22.3317 -22.3315 -22.2931 -13.8091  -5.9720  -5.5859  -5.5520
     0.5627   0.5680   0.9238   6.2747   6.6905   6.9631   7.8242   7.9734
     8.2372   9.6039   9.7242  10.2991  14.1124  14.1374  14.4541  16.1698

          k = 0.2500 0.2500-0.2500 (  7199 PWs)   bands (ev):

   -46.0458 -22.3094 -22.3084 -22.3084 -13.8669  -6.1563  -5.6115  -5.6115
     0.6034   0.6034   1.2156   6.7401   7.3961   7.3961   7.9321   8.1463
     8.1463   9.7625   9.7625   9.7664  13.7093  13.7333  13.7333  16.5314

          k = 0.2500 0.2500 0.0000 (  7179 PWs)   bands (ev):

   -46.0463 -22.3105 -22.3096 -22.2813 -13.9134  -6.3364  -5.6617  -5.6034
     0.7574   0.9605   1.0736   6.9734   7.4301   7.7807   7.9532   8.3635
     8.9852   9.3821   9.5209  10.0012  13.2051  13.3458  13.6197  15.1059

          k = 0.2500 0.4167 0.2500 (  7201 PWs)   bands (ev):

   -46.0453 -22.3323 -22.3079 -22.3073 -13.8258  -6.0767  -5.5666  -5.5317
     0.4699   0.6119   1.0005   6.4147   7.1046   7.3747   7.4292   8.0946
     8.2918   9.5691   9.8781   9.8907  13.8101  14.1880  14.2189  16.4995

          k = 0.2500 0.4167 0.5000 (  7194 PWs)   bands (ev):

   -46.0448 -22.3345 -22.3307 -22.3064 -13.7852  -5.7937  -5.5289  -5.5280
     0.3420   0.3979   0.6149   6.1903   6.6485   7.3359   7.4232   8.0625
     8.0902   9.8489   9.8999  10.3344  14.3040  14.3698  14.5694  16.8486

          k = 0.2500 0.2500-0.4167 (  7201 PWs)   bands (ev):

   -46.0453 -22.3323 -22.3079 -22.3073 -13.8258  -6.0767  -5.5666  -5.5317
     0.4699   0.6119   1.0005   6.4147   7.1046   7.3747   7.4292   8.0946
     8.2918   9.5691   9.8781   9.8907  13.8101  14.1880  14.2189  16.4995

          k = 0.2500 0.2500-0.1667 (  7191 PWs)   bands (ev):

   -46.0460 -22.3098 -22.3090 -22.2951 -13.8903  -6.2390  -5.6368  -5.6162
     0.6804   0.6970   1.2337   6.8391   7.4124   7.5938   8.0444   8.2207
     8.4358   9.6196   9.6313   9.8794  13.4487  13.5237  13.6733  15.8879

          k =-0.2500-0.4167-0.2500 (  7201 PWs)   bands (ev):

   -46.0453 -22.3323 -22.3079 -22.3073 -13.8258  -6.0767  -5.5666  -5.5317
     0.4699   0.6119   1.0005   6.4147   7.1046   7.3747   7.4292   8.0946
     8.2918   9.5691   9.8781   9.8907  13.8101  14.1880  14.2189  16.4995

          k =-0.2500-0.4167 0.0000 (  7193 PWs)   bands (ev):

   -46.0458 -22.3338 -22.3088 -22.2804 -13.8655  -6.3376  -5.6328  -5.5148
     0.8058   0.9952   1.0526   6.4534   7.1239   7.2893   7.7827   8.1873
     9.0594   9.2088   9.3909   9.9819  13.2946  13.9582  14.1059  15.2057

          k = 0.4167 0.2500-0.4167 (  7195 PWs)   bands (ev):

   -46.0448 -22.3310 -22.3308 -22.3066 -13.7907  -5.8325  -5.5432  -5.5192
     0.3641   0.3925   0.6928   6.2637   6.6931   7.2858   7.4523   8.0556
     8.1247   9.8037   9.8940  10.2849  14.2836  14.2969  14.5110  16.8488

          k = 0.4167 0.2500-0.1667 (  7203 PWs)   bands (ev):

   -46.0456 -22.3331 -22.3082 -22.2940 -13.8457  -6.2096  -5.5983  -5.5238
     0.6072   0.7575   1.0983   6.4315   7.1128   7.3475   7.7094   8.1076
     8.5411   9.4535   9.5914   9.9204  13.5476  14.0667  14.1565  15.9512

          k = 0.4167 0.4167 0.2500 (  7195 PWs)   bands (ev):

   -46.0448 -22.3310 -22.3308 -22.3066 -13.7907  -5.8325  -5.5432  -5.5192
     0.3641   0.3925   0.6928   6.2637   6.6931   7.2858   7.4523   8.0556
     8.1247   9.8037   9.8940  10.2849  14.2836  14.2969  14.5110  16.8488

          k = 0.4167 0.4167 0.5000 (  7200 PWs)   bands (ev):

   -46.0443 -22.3333 -22.3296 -22.3295 -13.7534  -5.5294  -5.4605  -5.4535
     0.0670   0.1016   0.1708   6.0476   6.6366   6.7002   7.9658   8.1452
     8.1478  10.2402  10.2911  10.3406  14.6338  14.6732  14.6759  17.5767

          k =-0.4167 0.4167-0.2500 (  7195 PWs)   bands (ev):

   -46.0448 -22.3310 -22.3308 -22.3066 -13.7907  -5.8325  -5.5432  -5.5192
     0.3641   0.3925   0.6928   6.2637   6.6931   7.2858   7.4523   8.0556
     8.1247   9.8037   9.8940  10.2849  14.2836  14.2969  14.5110  16.8488

          k =-0.4167 0.4167 0.0000 (  7195 PWs)   bands (ev):

   -46.0454 -22.3324 -22.3322 -22.2796 -13.8273  -6.1064  -5.6274  -5.5846
     0.7392   0.8097   1.1545   6.2741   6.5922   6.6888   7.8095   7.8594
     8.8318   9.4376   9.5841  10.3175  13.9543  13.9874  14.3999  15.3797

          k = 0.4167 0.4167-0.4167 (  7196 PWs)   bands (ev):

   -46.0444 -22.3299 -22.3297 -22.3297 -13.7584  -5.5740  -5.4658  -5.4658
     0.1096   0.1096   0.2623   6.1117   6.6991   6.6991   7.8923   8.1379
     8.1379  10.2214  10.2214  10.2991  14.6156  14.6156  14.6187  17.7022

          k = 0.4167 0.4167-0.1667 (  7195 PWs)   bands (ev):

   -46.0451 -22.3317 -22.3315 -22.2931 -13.8091  -5.9720  -5.5859  -5.5520
     0.5627   0.5680   0.9238   6.2747   6.6905   6.9631   7.8242   7.9734
     8.2372   9.6039   9.7242  10.2991  14.1124  14.1374  14.4541  16.1698

     highest occupied, lowest unoccupied level (ev):    10.3122   12.5403

     Writing output data file bto.save

                                                                                

     bravais-lattice index     =            1
     lattice parameter (alat)  =       7.5234  a.u.
     unit-cell volume          =     425.8418 (a.u.)^3
     number of atoms/cell      =            5
     number of atomic types    =            3
     kinetic-energy cut-off    =     100.0000  Ry
     charge density cut-off    =     800.0000  Ry
     convergence threshold     =      1.0E-12
     beta                      =       0.7000
     number of iterations used =            4
     Exchange-correlation      =  SLA  PW   PBE  PBE ( 1  4  3  4 0 0)


     celldm(1)=    7.52343  celldm(2)=    0.00000  celldm(3)=    0.00000
     celldm(4)=    0.00000  celldm(5)=    0.00000  celldm(6)=    0.00000

     crystal axes: (cart. coord. in units of alat)
               a(1) = (  1.0000  0.0000  0.0000 )  
               a(2) = (  0.0000  1.0000  0.0000 )  
               a(3) = (  0.0000  0.0000  1.0000 )  

     reciprocal axes: (cart. coord. in units 2 pi/alat)
               b(1) = (  1.0000  0.0000  0.0000 )  
               b(2) = (  0.0000  1.0000  0.0000 )  
               b(3) = (  0.0000  0.0000  1.0000 )  


     Atoms inside the unit cell: 

     Cartesian axes

     site n.  atom      mass           positions (alat units)
        1     Ba 137.3300   tau(    1) = (    0.00000    0.00000    0.00000  )
        2     Ti  47.8800   tau(    2) = (    0.50000    0.50000    0.50000  )
        3     O   15.9900   tau(    3) = (    0.00000    0.50000    0.50000  )
        4     O   15.9900   tau(    4) = (    0.50000    0.00000    0.50000  )
        5     O   15.9900   tau(    5) = (    0.50000    0.50000    0.00000  )

     Computing dynamical matrix for 
                    q = (   0.0000000   0.0000000   0.2500000 )
 
      8 Sym.Ops. (no q -> -q+G )


     G cutoff = 1146.9974  (   5814 G-vectors)     FFT grid: ( 72, 72, 72)
     G cutoff =  573.4987  (   2058 G-vectors)  smooth grid: ( 48, 48, 48)
     number of k points=    72

     PseudoPot. # 1 for O  read from file:
     ../../PSP_DIR/O.pbe-rrkjus.UPF
     MD5 check sum: 390ba29e75625707450f3bd3f0eb6be9
     Pseudo is Ultrasoft, Zval =  6.0
     Generated by new atomic code, or converted to UPF format
     Using radial grid of 1269 points,  4 beta functions with: 
                l(1) =   0
                l(2) =   0
                l(3) =   1
                l(4) =   1
     Q(r) pseudized with 0 coefficients 


     PseudoPot. # 2 for Ti read from file:
     ../../PSP_DIR/Ti.pbe-sp-van_ak.UPF
     MD5 check sum: 8e4df49b7f0d34bbd5052bf3f5ea0213
     Pseudo is Ultrasoft, Zval = 12.0
     Generated by new atomic code, or converted to UPF format
     Using radial grid of  851 points,  6 beta functions with: 
                l(1) =   0
                l(2) =   0
                l(3) =   1
                l(4) =   1
                l(5) =   2
                l(6) =   2
     Q(r) pseudized with  8 coefficients,  rinner =    1.000   1.000   1.000
                                                       1.000   1.000

     PseudoPot. # 3 for Ba read from file:
     ../../PSP_DIR/Ba.pbe-nsp-van.UPF
     MD5 check sum: a011de417d3466d8e94df216395bc359
     Pseudo is Ultrasoft + core correction, Zval = 10.0
     Generated by new atomic code, or converted to UPF format
     Using radial grid of  907 points,  6 beta functions with: 
                l(1) =   0
                l(2) =   0
                l(3) =   1
                l(4) =   1
                l(5) =   2
                l(6) =   2
     Q(r) pseudized with  6 coefficients,  rinner =    1.200   1.200   1.200
                                                       1.200   1.200

     Mode symmetry, C_4v (4mm)  point group:


     Atomic displacements:
     There are  10 irreducible representations

     Representation     1      1 modes -A_1  G_1 D_1  To be done

     Representation     2      1 modes -A_1  G_1 D_1  To be done

     Representation     3      1 modes -A_1  G_1 D_1  To be done

     Representation     4      1 modes -A_1  G_1 D_1  To be done

     Representation     5      1 modes -B_1  G_3 D_2  To be done

     Representation     6      2 modes -E    G_5 D_5  To be done

     Representation     7      2 modes -E    G_5 D_5  To be done

     Representation     8      2 modes -E    G_5 D_5  To be done

     Representation     9      2 modes -E    G_5 D_5  To be done

     Representation    10      2 modes -E    G_5 D_5  To be done



     Alpha used in Ewald sum =   2.8000
     PHONON       :  2m37.99s CPU     2m51.04s WALL



     Representation #  1 mode #   1

     Self-consistent Calculation

      iter #   1 total cpu time :   173.5 secs   av.it.:   9.4
      thresh= 1.000E-02 alpha_mix =  0.700 |ddv_scf|^2 =  9.718E-05

      iter #   2 total cpu time :   176.7 secs   av.it.:  15.7
      thresh= 9.858E-04 alpha_mix =  0.700 |ddv_scf|^2 =  8.996E-04

      iter #   3 total cpu time :   179.6 secs   av.it.:  13.2
      thresh= 2.999E-03 alpha_mix =  0.700 |ddv_scf|^2 =  1.825E-06

      iter #   4 total cpu time :   182.8 secs   av.it.:  16.2
      thresh= 1.351E-04 alpha_mix =  0.700 |ddv_scf|^2 =  1.777E-07

      iter #   5 total cpu time :   186.6 secs   av.it.:  16.6
      thresh= 4.216E-05 alpha_mix =  0.700 |ddv_scf|^2 =  5.915E-08

      iter #   6 total cpu time :   189.9 secs   av.it.:  16.5
      thresh= 2.432E-05 alpha_mix =  0.700 |ddv_scf|^2 =  1.757E-10

      iter #   7 total cpu time :   193.2 secs   av.it.:  17.7
      thresh= 1.326E-06 alpha_mix =  0.700 |ddv_scf|^2 =  1.873E-10

      iter #   8 total cpu time :   196.7 secs   av.it.:  16.7
      thresh= 1.369E-06 alpha_mix =  0.700 |ddv_scf|^2 =  5.796E-11

      iter #   9 total cpu time :   199.8 secs   av.it.:  15.6
      thresh= 7.613E-07 alpha_mix =  0.700 |ddv_scf|^2 =  2.011E-13

     End of self-consistent calculation

     Convergence has been achieved 


     Representation #  2 mode #   2

     Self-consistent Calculation

      iter #   1 total cpu time :   203.9 secs   av.it.:  10.8
      thresh= 1.000E-02 alpha_mix =  0.700 |ddv_scf|^2 =  1.671E-04

      iter #   2 total cpu time :   207.2 secs   av.it.:  16.1
      thresh= 1.293E-03 alpha_mix =  0.700 |ddv_scf|^2 =  1.662E-03

      iter #   3 total cpu time :   210.3 secs   av.it.:  13.2
      thresh= 4.076E-03 alpha_mix =  0.700 |ddv_scf|^2 =  1.827E-06

      iter #   4 total cpu time :   213.6 secs   av.it.:  16.8
      thresh= 1.352E-04 alpha_mix =  0.700 |ddv_scf|^2 =  3.237E-07

      iter #   5 total cpu time :   217.1 secs   av.it.:  17.2
      thresh= 5.690E-05 alpha_mix =  0.700 |ddv_scf|^2 =  9.887E-08

      iter #   6 total cpu time :   220.4 secs   av.it.:  16.7
      thresh= 3.144E-05 alpha_mix =  0.700 |ddv_scf|^2 =  3.494E-09

      iter #   7 total cpu time :   223.9 secs   av.it.:  17.4
      thresh= 5.911E-06 alpha_mix =  0.700 |ddv_scf|^2 =  3.782E-09

      iter #   8 total cpu time :   227.7 secs   av.it.:  15.4
      thresh= 6.150E-06 alpha_mix =  0.700 |ddv_scf|^2 =  9.261E-12

      iter #   9 total cpu time :   231.0 secs   av.it.:  17.3
      thresh= 3.043E-07 alpha_mix =  0.700 |ddv_scf|^2 =  4.444E-12

      iter #  10 total cpu time :   234.4 secs   av.it.:  16.5
      thresh= 2.108E-07 alpha_mix =  0.700 |ddv_scf|^2 =  6.573E-14

     End of self-consistent calculation

     Convergence has been achieved 


     Representation #  3 mode #   3

     Self-consistent Calculation

      iter #   1 total cpu time :   237.1 secs   av.it.:   9.2
      thresh= 1.000E-02 alpha_mix =  0.700 |ddv_scf|^2 =  7.324E-05

      iter #   2 total cpu time :   240.9 secs   av.it.:  16.0
      thresh= 8.558E-04 alpha_mix =  0.700 |ddv_scf|^2 =  7.836E-04

      iter #   3 total cpu time :   244.5 secs   av.it.:  13.3
      thresh= 2.799E-03 alpha_mix =  0.700 |ddv_scf|^2 =  3.582E-07

      iter #   4 total cpu time :   247.9 secs   av.it.:  17.1
      thresh= 5.985E-05 alpha_mix =  0.700 |ddv_scf|^2 =  1.781E-07

      iter #   5 total cpu time :   251.3 secs   av.it.:  16.4
      thresh= 4.220E-05 alpha_mix =  0.700 |ddv_scf|^2 =  1.144E-08

      iter #   6 total cpu time :   254.7 secs   av.it.:  17.4
      thresh= 1.070E-05 alpha_mix =  0.700 |ddv_scf|^2 =  1.975E-09

      iter #   7 total cpu time :   258.2 secs   av.it.:  17.1
      thresh= 4.444E-06 alpha_mix =  0.700 |ddv_scf|^2 =  5.125E-10

      iter #   8 total cpu time :   261.8 secs   av.it.:  16.2
      thresh= 2.264E-06 alpha_mix =  0.700 |ddv_scf|^2 =  5.293E-10

      iter #   9 total cpu time :   265.5 secs   av.it.:  15.4
      thresh= 2.301E-06 alpha_mix =  0.700 |ddv_scf|^2 =  2.491E-13

     End of self-consistent calculation

     Convergence has been achieved 


     Representation #  4 mode #   4

     Self-consistent Calculation

      iter #   1 total cpu time :   268.0 secs   av.it.:   9.3
      thresh= 1.000E-02 alpha_mix =  0.700 |ddv_scf|^2 =  1.107E-04

      iter #   2 total cpu time :   272.0 secs   av.it.:  15.7
      thresh= 1.052E-03 alpha_mix =  0.700 |ddv_scf|^2 =  1.090E-03

      iter #   3 total cpu time :   276.7 secs   av.it.:  13.2
      thresh= 3.302E-03 alpha_mix =  0.700 |ddv_scf|^2 =  7.025E-07

      iter #   4 total cpu time :   280.0 secs   av.it.:  17.3
      thresh= 8.381E-05 alpha_mix =  0.700 |ddv_scf|^2 =  1.881E-07

      iter #   5 total cpu time :   283.5 secs   av.it.:  16.8
      thresh= 4.337E-05 alpha_mix =  0.700 |ddv_scf|^2 =  7.736E-09

      iter #   6 total cpu time :   286.8 secs   av.it.:  17.6
      thresh= 8.795E-06 alpha_mix =  0.700 |ddv_scf|^2 =  2.714E-09

      iter #   7 total cpu time :   290.2 secs   av.it.:  16.6
      thresh= 5.209E-06 alpha_mix =  0.700 |ddv_scf|^2 =  3.151E-11

      iter #   8 total cpu time :   293.8 secs   av.it.:  18.1
      thresh= 5.614E-07 alpha_mix =  0.700 |ddv_scf|^2 =  4.423E-12

      iter #   9 total cpu time :   297.9 secs   av.it.:  17.8
      thresh= 2.103E-07 alpha_mix =  0.700 |ddv_scf|^2 =  2.030E-12

      iter #  10 total cpu time :   301.1 secs   av.it.:  16.4
      thresh= 1.425E-07 alpha_mix =  0.700 |ddv_scf|^2 =  1.273E-12

      iter #  11 total cpu time :   304.2 secs   av.it.:  15.2
      thresh= 1.128E-07 alpha_mix =  0.700 |ddv_scf|^2 =  1.684E-13

     End of self-consistent calculation

     Convergence has been achieved 


     Representation #  5 mode #   5

     Self-consistent Calculation

      iter #   1 total cpu time :   307.3 secs   av.it.:   8.0
      thresh= 1.000E-02 alpha_mix =  0.700 |ddv_scf|^2 =  4.334E-07

      iter #   2 total cpu time :   310.6 secs   av.it.:  16.8
      thresh= 6.583E-05 alpha_mix =  0.700 |ddv_scf|^2 =  7.309E-09

      iter #   3 total cpu time :   314.3 secs   av.it.:  17.6
      thresh= 8.549E-06 alpha_mix =  0.700 |ddv_scf|^2 =  3.478E-09

      iter #   4 total cpu time :   317.5 secs   av.it.:  16.6
      thresh= 5.898E-06 alpha_mix =  0.700 |ddv_scf|^2 =  3.928E-10

      iter #   5 total cpu time :   321.0 secs   av.it.:  16.4
      thresh= 1.982E-06 alpha_mix =  0.700 |ddv_scf|^2 =  4.925E-12

      iter #   6 total cpu time :   324.2 secs   av.it.:  16.5
      thresh= 2.219E-07 alpha_mix =  0.700 |ddv_scf|^2 =  2.385E-14

     End of self-consistent calculation

     Convergence has been achieved 


     Representation #  6 modes #   6  7

     Self-consistent Calculation

      iter #   1 total cpu time :   328.7 secs   av.it.:   7.8
      thresh= 1.000E-02 alpha_mix =  0.700 |ddv_scf|^2 =  8.635E-08

      iter #   2 total cpu time :   336.2 secs   av.it.:  19.0
      thresh= 2.939E-05 alpha_mix =  0.700 |ddv_scf|^2 =  1.371E-08

      iter #   3 total cpu time :   343.4 secs   av.it.:  19.0
      thresh= 1.171E-05 alpha_mix =  0.700 |ddv_scf|^2 =  1.814E-10

      iter #   4 total cpu time :   350.8 secs   av.it.:  19.0
      thresh= 1.347E-06 alpha_mix =  0.700 |ddv_scf|^2 =  9.088E-12

      iter #   5 total cpu time :   358.5 secs   av.it.:  19.2
      thresh= 3.015E-07 alpha_mix =  0.700 |ddv_scf|^2 =  1.901E-13

     End of self-consistent calculation

     Convergence has been achieved 


     Representation #  7 modes #   8  9

     Self-consistent Calculation

      iter #   1 total cpu time :   364.2 secs   av.it.:  10.2
      thresh= 1.000E-02 alpha_mix =  0.700 |ddv_scf|^2 =  6.667E-07

      iter #   2 total cpu time :   371.6 secs   av.it.:  19.3
      thresh= 8.165E-05 alpha_mix =  0.700 |ddv_scf|^2 =  1.526E-07

      iter #   3 total cpu time :   378.9 secs   av.it.:  18.8
      thresh= 3.907E-05 alpha_mix =  0.700 |ddv_scf|^2 =  2.932E-10

      iter #   4 total cpu time :   386.4 secs   av.it.:  19.6
      thresh= 1.712E-06 alpha_mix =  0.700 |ddv_scf|^2 =  1.119E-11

      iter #   5 total cpu time :   393.9 secs   av.it.:  19.0
      thresh= 3.345E-07 alpha_mix =  0.700 |ddv_scf|^2 =  3.500E-13

     End of self-consistent calculation

     Convergence has been achieved 


     Representation #  8 modes #  10 11

     Self-consistent Calculation

      iter #   1 total cpu time :   399.1 secs   av.it.:   8.4
      thresh= 1.000E-02 alpha_mix =  0.700 |ddv_scf|^2 =  1.598E-07

      iter #   2 total cpu time :   406.5 secs   av.it.:  19.3
      thresh= 3.998E-05 alpha_mix =  0.700 |ddv_scf|^2 =  1.593E-08

      iter #   3 total cpu time :   414.6 secs   av.it.:  19.1
      thresh= 1.262E-05 alpha_mix =  0.700 |ddv_scf|^2 =  3.453E-10

      iter #   4 total cpu time :   422.0 secs   av.it.:  19.0
      thresh= 1.858E-06 alpha_mix =  0.700 |ddv_scf|^2 =  3.555E-12

      iter #   5 total cpu time :   429.1 secs   av.it.:  18.9
      thresh= 1.885E-07 alpha_mix =  0.700 |ddv_scf|^2 =  2.650E-13

     End of self-consistent calculation

     Convergence has been achieved 


     Representation #  9 modes #  12 13

     Self-consistent Calculation

      iter #   1 total cpu time :   434.4 secs   av.it.:   9.0
      thresh= 1.000E-02 alpha_mix =  0.700 |ddv_scf|^2 =  1.141E-07

      iter #   2 total cpu time :   441.7 secs   av.it.:  19.5
      thresh= 3.378E-05 alpha_mix =  0.700 |ddv_scf|^2 =  1.071E-08

      iter #   3 total cpu time :   449.3 secs   av.it.:  19.2
      thresh= 1.035E-05 alpha_mix =  0.700 |ddv_scf|^2 =  3.217E-10

      iter #   4 total cpu time :   456.9 secs   av.it.:  19.1
      thresh= 1.794E-06 alpha_mix =  0.700 |ddv_scf|^2 =  3.964E-12

      iter #   5 total cpu time :   464.4 secs   av.it.:  19.1
      thresh= 1.991E-07 alpha_mix =  0.700 |ddv_scf|^2 =  2.949E-13

     End of self-consistent calculation

     Convergence has been achieved 


     Representation # 10 modes #  14 15

     Self-consistent Calculation

      iter #   1 total cpu time :   469.3 secs   av.it.:   9.0
      thresh= 1.000E-02 alpha_mix =  0.700 |ddv_scf|^2 =  2.428E-07

      iter #   2 total cpu time :   477.0 secs   av.it.:  19.5
      thresh= 4.927E-05 alpha_mix =  0.700 |ddv_scf|^2 =  3.460E-08

      iter #   3 total cpu time :   484.5 secs   av.it.:  19.0
      thresh= 1.860E-05 alpha_mix =  0.700 |ddv_scf|^2 =  2.960E-10

      iter #   4 total cpu time :   491.8 secs   av.it.:  19.2
      thresh= 1.721E-06 alpha_mix =  0.700 |ddv_scf|^2 =  3.145E-12

      iter #   5 total cpu time :   499.0 secs   av.it.:  18.4
      thresh= 1.773E-07 alpha_mix =  0.700 |ddv_scf|^2 =  1.145E-13

     End of self-consistent calculation

     Convergence has been achieved 
 
     Number of q in the star =    6
     List of q in the star:
          1   0.000000000   0.000000000   0.250000000
          2   0.000000000   0.250000000   0.000000000
          3   0.000000000   0.000000000  -0.250000000
          4   0.000000000  -0.250000000   0.000000000
          5   0.250000000   0.000000000   0.000000000
          6  -0.250000000   0.000000000   0.000000000

     Diagonalizing the dynamical matrix

     q = (    0.000000000   0.000000000   0.250000000 ) 

 **************************************************************************
     freq (    1) =      -4.731055 [THz] =    -157.811003 [cm-1]
     freq (    2) =      -4.731055 [THz] =    -157.811003 [cm-1]
     freq (    3) =       2.339995 [THz] =      78.053835 [cm-1]
     freq (    4) =       2.339995 [THz] =      78.053835 [cm-1]
     freq (    5) =       3.340017 [THz] =     111.410989 [cm-1]
     freq (    6) =       5.075983 [THz] =     169.316563 [cm-1]
     freq (    7) =       5.075983 [THz] =     169.316563 [cm-1]
     freq (    8) =       6.413636 [THz] =     213.935853 [cm-1]
     freq (    9) =       8.827269 [THz] =     294.445994 [cm-1]
     freq (   10) =       9.251249 [THz] =     308.588456 [cm-1]
     freq (   11) =       9.251249 [THz] =     308.588456 [cm-1]
     freq (   12) =      13.850395 [THz] =     461.999432 [cm-1]
     freq (   13) =      13.850395 [THz] =     461.999432 [cm-1]
     freq (   14) =      14.533323 [THz] =     484.779467 [cm-1]
     freq (   15) =      20.124118 [THz] =     671.268307 [cm-1]
 **************************************************************************

     Mode symmetry, C_4v (4mm)  point group:

     freq (  1 -  2) =       -157.8  [cm-1]   --> E    G_5 D_5       
     freq (  3 -  4) =         78.1  [cm-1]   --> E    G_5 D_5       
     freq (  5 -  5) =        111.4  [cm-1]   --> A_1  G_1 D_1       
     freq (  6 -  7) =        169.3  [cm-1]   --> E    G_5 D_5       
     freq (  8 -  8) =        213.9  [cm-1]   --> A_1  G_1 D_1       
     freq (  9 -  9) =        294.4  [cm-1]   --> B_1  G_3 D_2       
     freq ( 10 - 11) =        308.6  [cm-1]   --> E    G_5 D_5       
     freq ( 12 - 13) =        462.0  [cm-1]   --> E    G_5 D_5       
     freq ( 14 - 14) =        484.8  [cm-1]   --> A_1  G_1 D_1       
     freq ( 15 - 15) =        671.3  [cm-1]   --> A_1  G_1 D_1       

     Calculation of q =    0.0000000   0.0000000  -0.5000000

   Info: using nr1, nr2, nr3 values from input

   Info: using nr1, nr2, nr3 values from input
 
     Parallelization info
     --------------------
     sticks:   dense  smooth     PW     G-vecs:    dense   smooth      PW
     Min         128      63     18                 5810     2051     314
     Max         129      64     19                 5814     2058     319
     Sum        3593    1789    517               162747    57555    8829
 


     bravais-lattice index     =            1
     lattice parameter (alat)  =       7.5234  a.u.
     unit-cell volume          =     425.8418 (a.u.)^3
     number of atoms/cell      =            5
     number of atomic types    =            3
     number of electrons       =        40.00
     number of Kohn-Sham states=           24
     kinetic-energy cutoff     =     100.0000  Ry
     charge density cutoff     =     800.0000  Ry
     Exchange-correlation      =  SLA  PW   PBE  PBE ( 1  4  3  4 0 0)

     celldm(1)=   7.523434  celldm(2)=   0.000000  celldm(3)=   0.000000
     celldm(4)=   0.000000  celldm(5)=   0.000000  celldm(6)=   0.000000

     crystal axes: (cart. coord. in units of alat)
               a(1) = (   1.000000   0.000000   0.000000 )  
               a(2) = (   0.000000   1.000000   0.000000 )  
               a(3) = (   0.000000   0.000000   1.000000 )  

     reciprocal axes: (cart. coord. in units 2 pi/alat)
               b(1) = (  1.000000  0.000000  0.000000 )  
               b(2) = (  0.000000  1.000000  0.000000 )  
               b(3) = (  0.000000  0.000000  1.000000 )  


     PseudoPot. # 1 for O  read from file:
     ../../PSP_DIR/O.pbe-rrkjus.UPF
     MD5 check sum: 390ba29e75625707450f3bd3f0eb6be9
     Pseudo is Ultrasoft, Zval =  6.0
     Generated by new atomic code, or converted to UPF format
     Using radial grid of 1269 points,  4 beta functions with: 
                l(1) =   0
                l(2) =   0
                l(3) =   1
                l(4) =   1
     Q(r) pseudized with 0 coefficients 


     PseudoPot. # 2 for Ti read from file:
     ../../PSP_DIR/Ti.pbe-sp-van_ak.UPF
     MD5 check sum: 8e4df49b7f0d34bbd5052bf3f5ea0213
     Pseudo is Ultrasoft, Zval = 12.0
     Generated by new atomic code, or converted to UPF format
     Using radial grid of  851 points,  6 beta functions with: 
                l(1) =   0
                l(2) =   0
                l(3) =   1
                l(4) =   1
                l(5) =   2
                l(6) =   2
     Q(r) pseudized with  8 coefficients,  rinner =    1.000   1.000   1.000
                                                       1.000   1.000

     PseudoPot. # 3 for Ba read from file:
     ../../PSP_DIR/Ba.pbe-nsp-van.UPF
     MD5 check sum: a011de417d3466d8e94df216395bc359
     Pseudo is Ultrasoft + core correction, Zval = 10.0
     Generated by new atomic code, or converted to UPF format
     Using radial grid of  907 points,  6 beta functions with: 
                l(1) =   0
                l(2) =   0
                l(3) =   1
                l(4) =   1
                l(5) =   2
                l(6) =   2
     Q(r) pseudized with  6 coefficients,  rinner =    1.200   1.200   1.200
                                                       1.200   1.200

     atomic species   valence    mass     pseudopotential
        O              6.00    15.99000     O ( 1.00)
        Ti            12.00    47.88000     Ti( 1.00)
        Ba            10.00   137.33000     Ba( 1.00)

     48 Sym. Ops., with inversion, found



   Cartesian axes

     site n.     atom                  positions (alat units)
         1           Ba  tau(   1) = (   0.0000000   0.0000000   0.0000000  )
         2           Ti  tau(   2) = (   0.5000000   0.5000000   0.5000000  )
         3           O   tau(   3) = (   0.0000000   0.5000000   0.5000000  )
         4           O   tau(   4) = (   0.5000000   0.0000000   0.5000000  )
         5           O   tau(   5) = (   0.5000000   0.5000000   0.0000000  )

     number of k points=    36
                       cart. coord. in units 2pi/alat
        k(    1) = (   0.0833333   0.0833333   0.0833333), wk =   0.0740741
        k(    2) = (   0.0833333   0.0833333  -0.4166667), wk =   0.0000000
        k(    3) = (   0.0833333   0.0833333   0.2500000), wk =   0.0740741
        k(    4) = (   0.0833333   0.0833333  -0.2500000), wk =   0.0000000
        k(    5) = (   0.0833333   0.0833333   0.4166667), wk =   0.0740741
        k(    6) = (   0.0833333   0.0833333  -0.0833333), wk =   0.0000000
        k(    7) = (   0.0833333   0.2500000   0.2500000), wk =   0.1481481
        k(    8) = (   0.0833333   0.2500000  -0.2500000), wk =   0.0000000
        k(    9) = (   0.0833333   0.2500000   0.4166667), wk =   0.1481481
        k(   10) = (   0.0833333   0.2500000  -0.0833333), wk =   0.0000000
        k(   11) = (   0.0833333   0.4166667   0.4166667), wk =   0.1481481
        k(   12) = (   0.0833333   0.4166667  -0.0833333), wk =   0.0000000
        k(   13) = (   0.2500000   0.2500000   0.2500000), wk =   0.0740741
        k(   14) = (   0.2500000   0.2500000  -0.2500000), wk =   0.0000000
        k(   15) = (   0.2500000   0.2500000   0.4166667), wk =   0.0740741
        k(   16) = (   0.2500000   0.2500000  -0.0833333), wk =   0.0000000
        k(   17) = (   0.2500000   0.4166667   0.4166667), wk =   0.1481481
        k(   18) = (   0.2500000   0.4166667  -0.0833333), wk =   0.0000000
        k(   19) = (   0.4166667   0.4166667   0.4166667), wk =   0.0740741
        k(   20) = (   0.4166667   0.4166667  -0.0833333), wk =   0.0000000
        k(   21) = (   0.0833333   0.2500000   0.0833333), wk =   0.1481481
        k(   22) = (   0.0833333   0.2500000  -0.4166667), wk =   0.0000000
        k(   23) = (   0.0833333   0.4166667   0.0833333), wk =   0.1481481
        k(   24) = (   0.0833333   0.4166667  -0.4166667), wk =   0.0000000
        k(   25) = (   0.2500000   0.2500000   0.0833333), wk =   0.0740741
        k(   26) = (   0.2500000   0.2500000  -0.4166667), wk =   0.0000000
        k(   27) = (   0.2500000   0.4166667   0.0833333), wk =   0.1481481
        k(   28) = (   0.2500000   0.4166667  -0.4166667), wk =   0.0000000
        k(   29) = (   0.4166667  -0.0833333  -0.2500000), wk =   0.1481481
        k(   30) = (   0.4166667  -0.0833333  -0.7500000), wk =   0.0000000
        k(   31) = (   0.4166667   0.4166667   0.0833333), wk =   0.0740741
        k(   32) = (   0.4166667   0.4166667  -0.4166667), wk =   0.0000000
        k(   33) = (   0.2500000   0.4166667   0.2500000), wk =   0.1481481
        k(   34) = (   0.2500000   0.4166667  -0.2500000), wk =   0.0000000
        k(   35) = (   0.4166667   0.4166667   0.2500000), wk =   0.0740741
        k(   36) = (   0.4166667   0.4166667  -0.2500000), wk =   0.0000000

     Dense  grid:   162747 G-vectors     FFT dimensions: (  72,  72,  72)

     Smooth grid:    57555 G-vectors     FFT dimensions: (  48,  48,  48)

     Estimated max dynamical RAM per process >       5.59MB

     Estimated total allocated dynamical RAM >     156.45MB

     The potential is recalculated from file :
     ./_ph0/bto.save/charge-density.dat

     Starting wfc are   35 atomic wfcs

     Band Structure Calculation
     Davidson diagonalization with overlap

     ethr =  2.50E-11,  avg # of iterations = 18.1

     total cpu time spent up to now is       12.5 secs

     End of band structure calculation

          k = 0.0833 0.0833 0.0833 (  7174 PWs)   bands (ev):

   -46.0472 -22.2872 -22.2869 -22.2869 -14.0075  -6.3570  -5.6899  -5.6899
     0.7762   0.7762   0.9025   7.8898   8.0834   8.0834   8.9193   8.9193
     9.2846   9.8614  10.1657  10.1657  12.5403  12.5907  12.5907  14.8478

          k = 0.0833 0.0833-0.4167 (  7183 PWs)   bands (ev):

   -46.0462 -22.3351 -22.2850 -22.2849 -13.8973  -6.5227  -5.6617  -5.4313
     0.8745   0.9761   1.1477   6.5219   7.6769   7.7537   7.9690   8.3100
     9.0312   9.1445   9.5443   9.6547  12.6473  13.9532  13.9602  14.8413

          k = 0.0833 0.0833 0.2500 (  7174 PWs)   bands (ev):

   -46.0467 -22.3111 -22.2860 -22.2859 -13.9531  -6.4026  -5.6758  -5.6077
     0.8249   0.8300   1.0748   7.2176   7.8550   7.9474   8.5040   8.5115
     9.2041   9.2326   9.8808   9.8881  12.6082  13.2909  13.2957  14.8469

          k = 0.0833 0.0833-0.2500 (  7174 PWs)   bands (ev):

   -46.0467 -22.3111 -22.2860 -22.2859 -13.9531  -6.4026  -5.6758  -5.6077
     0.8249   0.8300   1.0748   7.2176   7.8550   7.9474   8.5040   8.5115
     9.2041   9.2326   9.8808   9.8881  12.6082  13.2909  13.2957  14.8469

          k = 0.0833 0.0833 0.4167 (  7183 PWs)   bands (ev):

   -46.0462 -22.3351 -22.2850 -22.2849 -13.8973  -6.5227  -5.6617  -5.4313
     0.8745   0.9761   1.1477   6.5219   7.6769   7.7537   7.9690   8.3100
     9.0312   9.1445   9.5443   9.6547  12.6473  13.9532  13.9602  14.8413

          k = 0.0833 0.0833-0.0833 (  7174 PWs)   bands (ev):

   -46.0472 -22.2872 -22.2869 -22.2869 -14.0075  -6.3570  -5.6899  -5.6899
     0.7762   0.7762   0.9025   7.8898   8.0834   8.0834   8.9193   8.9193
     9.2846   9.8614  10.1657  10.1657  12.5403  12.5907  12.5907  14.8478

          k = 0.0833 0.2500 0.2500 (  7191 PWs)   bands (ev):

   -46.0462 -22.3103 -22.3095 -22.2850 -13.9072  -6.3094  -5.6550  -5.6080
     0.7368   0.8406   1.1667   6.9336   7.4253   7.6998   8.0181   8.3145
     8.8338   9.4586   9.5350   9.9679  13.2662  13.3907  13.6342  15.3342

          k = 0.0833 0.2500-0.2500 (  7191 PWs)   bands (ev):

   -46.0462 -22.3103 -22.3095 -22.2850 -13.9072  -6.3094  -5.6550  -5.6080
     0.7368   0.8406   1.1667   6.9336   7.4253   7.6998   8.0181   8.3145
     8.8338   9.4586   9.5350   9.9679  13.2662  13.3907  13.6342  15.3342

          k = 0.0833 0.2500 0.4167 (  7196 PWs)   bands (ev):

   -46.0458 -22.3336 -22.3086 -22.2841 -13.8602  -6.3037  -5.6234  -5.5172
     0.7471   0.8928   1.1081   6.4463   7.1185   7.3045   7.7894   8.1524
     8.9116   9.2671   9.4408   9.9634  13.3608  13.9852  14.1193  15.4254

          k = 0.0833 0.2500-0.0833 (  7174 PWs)   bands (ev):

   -46.0467 -22.3111 -22.2860 -22.2859 -13.9531  -6.4026  -5.6758  -5.6077
     0.8249   0.8300   1.0748   7.2176   7.8550   7.9474   8.5040   8.5115
     9.2041   9.2326   9.8808   9.8881  12.6082  13.2909  13.2957  14.8469

          k = 0.0833 0.4167 0.4167 (  7204 PWs)   bands (ev):

   -46.0453 -22.3322 -22.3320 -22.2832 -13.8224  -6.0708  -5.6164  -5.5759
     0.6912   0.7408   1.0926   6.2750   6.6891   6.6940   7.8387   7.8933
     8.6353   9.4812   9.6186  10.3122  13.9951  14.0269  14.4141  15.6058

          k = 0.0833 0.4167-0.0833 (  7183 PWs)   bands (ev):

   -46.0462 -22.3351 -22.2850 -22.2849 -13.8973  -6.5227  -5.6617  -5.4313
     0.8745   0.9761   1.1477   6.5219   7.6769   7.7537   7.9690   8.3100
     9.0312   9.1445   9.5443   9.6547  12.6473  13.9532  13.9602  14.8413

          k = 0.2500 0.2500 0.2500 (  7199 PWs)   bands (ev):

   -46.0458 -22.3094 -22.3084 -22.3084 -13.8669  -6.1563  -5.6115  -5.6115
     0.6034   0.6034   1.2156   6.7401   7.3961   7.3961   7.9321   8.1463
     8.1463   9.7625   9.7625   9.7664  13.7093  13.7333  13.7333  16.5314

          k = 0.2500 0.2500-0.2500 (  7199 PWs)   bands (ev):

   -46.0458 -22.3094 -22.3084 -22.3084 -13.8669  -6.1563  -5.6115  -5.6115
     0.6034   0.6034   1.2156   6.7401   7.3961   7.3961   7.9321   8.1463
     8.1463   9.7625   9.7625   9.7664  13.7093  13.7333  13.7333  16.5314

          k = 0.2500 0.2500 0.4167 (  7201 PWs)   bands (ev):

   -46.0453 -22.3323 -22.3079 -22.3073 -13.8258  -6.0767  -5.5666  -5.5317
     0.4699   0.6119   1.0005   6.4147   7.1046   7.3747   7.4292   8.0946
     8.2918   9.5691   9.8781   9.8907  13.8101  14.1880  14.2189  16.4995

          k = 0.2500 0.2500-0.0833 (  7191 PWs)   bands (ev):

   -46.0462 -22.3103 -22.3095 -22.2850 -13.9072  -6.3094  -5.6550  -5.6080
     0.7368   0.8406   1.1667   6.9336   7.4253   7.6998   8.0181   8.3145
     8.8338   9.4586   9.5350   9.9679  13.2662  13.3907  13.6342  15.3342

          k = 0.2500 0.4167 0.4167 (  7195 PWs)   bands (ev):

   -46.0448 -22.3310 -22.3308 -22.3066 -13.7907  -5.8325  -5.5432  -5.5192
     0.3641   0.3925   0.6928   6.2637   6.6931   7.2858   7.4523   8.0556
     8.1247   9.8037   9.8940  10.2849  14.2836  14.2969  14.5110  16.8488

          k = 0.2500 0.4167-0.0833 (  7196 PWs)   bands (ev):

   -46.0458 -22.3336 -22.3086 -22.2841 -13.8602  -6.3037  -5.6234  -5.5172
     0.7471   0.8928   1.1081   6.4463   7.1185   7.3045   7.7894   8.1524
     8.9116   9.2671   9.4408   9.9634  13.3608  13.9852  14.1193  15.4254

          k = 0.4167 0.4167 0.4167 (  7196 PWs)   bands (ev):

   -46.0444 -22.3299 -22.3297 -22.3297 -13.7584  -5.5740  -5.4658  -5.4658
     0.1096   0.1096   0.2623   6.1117   6.6991   6.6991   7.8923   8.1379
     8.1379  10.2214  10.2214  10.2991  14.6156  14.6156  14.6187  17.7022

          k = 0.4167 0.4167-0.0833 (  7204 PWs)   bands (ev):

   -46.0453 -22.3322 -22.3320 -22.2832 -13.8224  -6.0708  -5.6164  -5.5759
     0.6912   0.7408   1.0926   6.2750   6.6891   6.6940   7.8387   7.8933
     8.6353   9.4812   9.6186  10.3122  13.9951  14.0269  14.4141  15.6058

          k = 0.0833 0.2500 0.0833 (  7174 PWs)   bands (ev):

   -46.0467 -22.3111 -22.2860 -22.2859 -13.9531  -6.4026  -5.6758  -5.6077
     0.8249   0.8300   1.0748   7.2176   7.8550   7.9474   8.5040   8.5115
     9.2041   9.2326   9.8808   9.8881  12.6082  13.2909  13.2957  14.8469

          k = 0.0833 0.2500-0.4167 (  7196 PWs)   bands (ev):

   -46.0458 -22.3336 -22.3086 -22.2841 -13.8602  -6.3037  -5.6234  -5.5172
     0.7471   0.8928   1.1081   6.4463   7.1185   7.3045   7.7894   8.1524
     8.9116   9.2671   9.4408   9.9634  13.3608  13.9852  14.1193  15.4254

          k = 0.0833 0.4167 0.0833 (  7183 PWs)   bands (ev):

   -46.0462 -22.3351 -22.2850 -22.2849 -13.8973  -6.5227  -5.6617  -5.4313
     0.8745   0.9761   1.1477   6.5219   7.6769   7.7537   7.9690   8.3100
     9.0312   9.1445   9.5443   9.6547  12.6473  13.9532  13.9602  14.8413

          k = 0.0833 0.4167-0.4167 (  7204 PWs)   bands (ev):

   -46.0453 -22.3322 -22.3320 -22.2832 -13.8224  -6.0708  -5.6164  -5.5759
     0.6912   0.7408   1.0926   6.2750   6.6891   6.6940   7.8387   7.8933
     8.6353   9.4812   9.6186  10.3122  13.9951  14.0269  14.4141  15.6058

[...]
     8.9116   9.2671   9.4408   9.9634  13.3608  13.9852  14.1193  15.4254

          k = 0.0833 0.4167 0.4167 (  7204 PWs)   bands (ev):

   -46.0453 -22.3322 -22.3320 -22.2832 -13.8224  -6.0708  -5.6164  -5.5759
     0.6912   0.7408   1.0926   6.2750   6.6891   6.6940   7.8387   7.8933
     8.6353   9.4812   9.6186  10.3122  13.9951  14.0269  14.4141  15.6058

          k =-0.4167-0.0833-0.0833 (  7183 PWs)   bands (ev):

   -46.0462 -22.3351 -22.2850 -22.2849 -13.8973  -6.5227  -5.6617  -5.4313
     0.8745   0.9761   1.1477   6.5219   7.6769   7.7537   7.9690   8.3100
     9.0312   9.1445   9.5443   9.6547  12.6473  13.9532  13.9602  14.8413

          k = 0.2500 0.2500 0.2500 (  7199 PWs)   bands (ev):

   -46.0458 -22.3094 -22.3084 -22.3084 -13.8669  -6.1563  -5.6115  -5.6115
     0.6034   0.6034   1.2156   6.7401   7.3961   7.3961   7.9321   8.1463
     8.1463   9.7625   9.7625   9.7664  13.7093  13.7333  13.7333  16.5314

          k =-0.2500-0.2500-0.2500 (  7199 PWs)   bands (ev):

   -46.0458 -22.3094 -22.3084 -22.3084 -13.8669  -6.1563  -5.6115  -5.6115
     0.6034   0.6034   1.2156   6.7401   7.3961   7.3961   7.9321   8.1463
     8.1463   9.7625   9.7625   9.7664  13.7093  13.7333  13.7333  16.5314

          k = 0.2500 0.2500 0.4167 (  7201 PWs)   bands (ev):

   -46.0453 -22.3323 -22.3079 -22.3073 -13.8258  -6.0767  -5.5666  -5.5317
     0.4699   0.6119   1.0005   6.4147   7.1046   7.3747   7.4292   8.0946
     8.2918   9.5691   9.8781   9.8907  13.8101  14.1880  14.2189  16.4995

          k =-0.2500-0.2500-0.0833 (  7191 PWs)   bands (ev):

   -46.0462 -22.3103 -22.3095 -22.2850 -13.9072  -6.3094  -5.6550  -5.6080
     0.7368   0.8406   1.1667   6.9336   7.4253   7.6998   8.0181   8.3145
     8.8338   9.4586   9.5350   9.9679  13.2662  13.3907  13.6342  15.3342

          k = 0.2500 0.4167 0.4167 (  7195 PWs)   bands (ev):

   -46.0448 -22.3310 -22.3308 -22.3066 -13.7907  -5.8325  -5.5432  -5.5192
     0.3641   0.3925   0.6928   6.2637   6.6931   7.2858   7.4523   8.0556
     8.1247   9.8037   9.8940  10.2849  14.2836  14.2969  14.5110  16.8488

          k =-0.2500-0.0833-0.0833 (  7174 PWs)   bands (ev):

   -46.0467 -22.3111 -22.2860 -22.2859 -13.9531  -6.4026  -5.6758  -5.6077
     0.8249   0.8300   1.0748   7.2176   7.8550   7.9474   8.5040   8.5115
     9.2041   9.2326   9.8808   9.8881  12.6082  13.2909  13.2957  14.8469

          k = 0.4167 0.4167 0.4167 (  7196 PWs)   bands (ev):

   -46.0444 -22.3299 -22.3297 -22.3297 -13.7584  -5.5740  -5.4658  -5.4658
     0.1096   0.1096   0.2623   6.1117   6.6991   6.6991   7.8923   8.1379
     8.1379  10.2214  10.2214  10.2991  14.6156  14.6156  14.6187  17.7022

          k =-0.0833-0.0833-0.0833 (  7174 PWs)   bands (ev):

   -46.0472 -22.2872 -22.2869 -22.2869 -14.0075  -6.3570  -5.6899  -5.6899
     0.7762   0.7762   0.9025   7.8898   8.0834   8.0834   8.9193   8.9193
     9.2846   9.8614  10.1657  10.1657  12.5403  12.5907  12.5907  14.8478

     highest occupied, lowest unoccupied level (ev):    10.3122   12.5403

     Writing output data file bto.save

                                                                                

     bravais-lattice index     =            1
     lattice parameter (alat)  =       7.5234  a.u.
     unit-cell volume          =     425.8418 (a.u.)^3
     number of atoms/cell      =            5
     number of atomic types    =            3
     kinetic-energy cut-off    =     100.0000  Ry
     charge density cut-off    =     800.0000  Ry
     convergence threshold     =      1.0E-12
     beta                      =       0.7000
     number of iterations used =            4
     Exchange-correlation      =  SLA  PW   PBE  PBE ( 1  4  3  4 0 0)


     celldm(1)=    7.52343  celldm(2)=    0.00000  celldm(3)=    0.00000
     celldm(4)=    0.00000  celldm(5)=    0.00000  celldm(6)=    0.00000

     crystal axes: (cart. coord. in units of alat)
               a(1) = (  1.0000  0.0000  0.0000 )  
               a(2) = (  0.0000  1.0000  0.0000 )  
               a(3) = (  0.0000  0.0000  1.0000 )  

     reciprocal axes: (cart. coord. in units 2 pi/alat)
               b(1) = (  1.0000  0.0000  0.0000 )  
               b(2) = (  0.0000  1.0000  0.0000 )  
               b(3) = (  0.0000  0.0000  1.0000 )  


     Atoms inside the unit cell: 

     Cartesian axes

     site n.  atom      mass           positions (alat units)
        1     Ba 137.3300   tau(    1) = (    0.00000    0.00000    0.00000  )
        2     Ti  47.8800   tau(    2) = (    0.50000    0.50000    0.50000  )
        3     O   15.9900   tau(    3) = (    0.00000    0.50000    0.50000  )
        4     O   15.9900   tau(    4) = (    0.50000    0.00000    0.50000  )
        5     O   15.9900   tau(    5) = (    0.50000    0.50000    0.00000  )

     Computing dynamical matrix for 
                    q = (  -0.5000000  -0.5000000  -0.5000000 )
 
     49 Sym.Ops. (with q -> -q+G )


     G cutoff = 1146.9974  (   5814 G-vectors)     FFT grid: ( 72, 72, 72)
     G cutoff =  573.4987  (   2058 G-vectors)  smooth grid: ( 48, 48, 48)
     number of k points=    20

     PseudoPot. # 1 for O  read from file:
     ../../PSP_DIR/O.pbe-rrkjus.UPF
     MD5 check sum: 390ba29e75625707450f3bd3f0eb6be9
     Pseudo is Ultrasoft, Zval =  6.0
     Generated by new atomic code, or converted to UPF format
     Using radial grid of 1269 points,  4 beta functions with: 
                l(1) =   0
                l(2) =   0
                l(3) =   1
                l(4) =   1
     Q(r) pseudized with 0 coefficients 


     PseudoPot. # 2 for Ti read from file:
     ../../PSP_DIR/Ti.pbe-sp-van_ak.UPF
     MD5 check sum: 8e4df49b7f0d34bbd5052bf3f5ea0213
     Pseudo is Ultrasoft, Zval = 12.0
     Generated by new atomic code, or converted to UPF format
     Using radial grid of  851 points,  6 beta functions with: 
                l(1) =   0
                l(2) =   0
                l(3) =   1
                l(4) =   1
                l(5) =   2
                l(6) =   2
     Q(r) pseudized with  8 coefficients,  rinner =    1.000   1.000   1.000
                                                       1.000   1.000

     PseudoPot. # 3 for Ba read from file:
     ../../PSP_DIR/Ba.pbe-nsp-van.UPF
     MD5 check sum: a011de417d3466d8e94df216395bc359
     Pseudo is Ultrasoft + core correction, Zval = 10.0
     Generated by new atomic code, or converted to UPF format
     Using radial grid of  907 points,  6 beta functions with: 
                l(1) =   0
                l(2) =   0
                l(3) =   1
                l(4) =   1
                l(5) =   2
                l(6) =   2
     Q(r) pseudized with  6 coefficients,  rinner =    1.200   1.200   1.200
                                                       1.200   1.200

     Mode symmetry, O_h (m-3m)  point group:


     Atomic displacements:
     There are   6 irreducible representations

     Representation     1      3 modes -T_2g G_25' G_5+  To be done

     Representation     2      1 modes -A_2u G_2'  G_2-  To be done

     Representation     3      2 modes -E_u  G_12' G_3-  To be done

     Representation     4      3 modes -T_1u G_15  G_4-  To be done

     Representation     5      3 modes -T_1u G_15  G_4-  To be done

     Representation     6      3 modes -T_2u G_25  G_5-  To be done



     Alpha used in Ewald sum =   2.8000
     PHONON       : 55m27.04s CPU    57m59.71s WALL



     Representation #  1 modes #   1  2  3

     Self-consistent Calculation

      iter #   1 total cpu time :  3484.5 secs   av.it.:  10.4
      thresh= 1.000E-02 alpha_mix =  0.700 |ddv_scf|^2 =  7.510E-07

      iter #   2 total cpu time :  3489.6 secs   av.it.:  19.9
      thresh= 8.666E-05 alpha_mix =  0.700 |ddv_scf|^2 =  1.863E-06

      iter #   3 total cpu time :  3494.3 secs   av.it.:  18.4
      thresh= 1.365E-04 alpha_mix =  0.700 |ddv_scf|^2 =  9.516E-08

      iter #   4 total cpu time :  3500.3 secs   av.it.:  18.5
      thresh= 3.085E-05 alpha_mix =  0.700 |ddv_scf|^2 =  1.695E-10

      iter #   5 total cpu time :  3504.9 secs   av.it.:  18.5
      thresh= 1.302E-06 alpha_mix =  0.700 |ddv_scf|^2 =  8.443E-13

     End of self-consistent calculation

     Convergence has been achieved 


     Representation #  2 mode #   4

     Self-consistent Calculation

      iter #   1 total cpu time :  3506.8 secs   av.it.:   8.8
      thresh= 1.000E-02 alpha_mix =  0.700 |ddv_scf|^2 =  1.524E-05

      iter #   2 total cpu time :  3508.7 secs   av.it.:  16.3
      thresh= 3.904E-04 alpha_mix =  0.700 |ddv_scf|^2 =  1.336E-04

      iter #   3 total cpu time :  3510.6 secs   av.it.:  14.2
      thresh= 1.156E-03 alpha_mix =  0.700 |ddv_scf|^2 =  7.718E-07

      iter #   4 total cpu time :  3512.3 secs   av.it.:  14.5
      thresh= 8.785E-05 alpha_mix =  0.700 |ddv_scf|^2 =  2.123E-09

      iter #   5 total cpu time :  3514.3 secs   av.it.:  14.6
      thresh= 4.608E-06 alpha_mix =  0.700 |ddv_scf|^2 =  2.650E-12

      iter #   6 total cpu time :  3516.4 secs   av.it.:  14.8
      thresh= 1.628E-07 alpha_mix =  0.700 |ddv_scf|^2 =  2.412E-13

     End of self-consistent calculation

     Convergence has been achieved 


     Representation #  3 modes #   5  6

     Self-consistent Calculation

      iter #   1 total cpu time :  3519.0 secs   av.it.:   8.6
      thresh= 1.000E-02 alpha_mix =  0.700 |ddv_scf|^2 =  7.043E-08

      iter #   2 total cpu time :  3522.3 secs   av.it.:  18.4
      thresh= 2.654E-05 alpha_mix =  0.700 |ddv_scf|^2 =  2.557E-10

      iter #   3 total cpu time :  3525.8 secs   av.it.:  18.2
      thresh= 1.599E-06 alpha_mix =  0.700 |ddv_scf|^2 =  7.992E-12

      iter #   4 total cpu time :  3529.1 secs   av.it.:  16.4
      thresh= 2.827E-07 alpha_mix =  0.700 |ddv_scf|^2 =  2.363E-14

     End of self-consistent calculation

     Convergence has been achieved 


     Representation #  4 modes #   7  8  9

     Self-consistent Calculation

      iter #   1 total cpu time :  3533.0 secs   av.it.:   8.9
      thresh= 1.000E-02 alpha_mix =  0.700 |ddv_scf|^2 =  2.720E-07

      iter #   2 total cpu time :  3537.9 secs   av.it.:  19.1
      thresh= 5.215E-05 alpha_mix =  0.700 |ddv_scf|^2 =  1.006E-07

      iter #   3 total cpu time :  3542.7 secs   av.it.:  18.2
      thresh= 3.171E-05 alpha_mix =  0.700 |ddv_scf|^2 =  1.504E-10

      iter #   4 total cpu time :  3547.9 secs   av.it.:  17.9
      thresh= 1.227E-06 alpha_mix =  0.700 |ddv_scf|^2 =  1.526E-12

      iter #   5 total cpu time :  3552.8 secs   av.it.:  17.9
      thresh= 1.235E-07 alpha_mix =  0.700 |ddv_scf|^2 =  2.274E-14

     End of self-consistent calculation

     Convergence has been achieved 


     Representation #  5 modes #  10 11 12

     Self-consistent Calculation

      iter #   1 total cpu time :  3557.0 secs   av.it.:   8.0
      thresh= 1.000E-02 alpha_mix =  0.700 |ddv_scf|^2 =  1.379E-07

      iter #   2 total cpu time :  3561.9 secs   av.it.:  18.6
      thresh= 3.714E-05 alpha_mix =  0.700 |ddv_scf|^2 =  5.577E-08

      iter #   3 total cpu time :  3566.7 secs   av.it.:  18.0
      thresh= 2.362E-05 alpha_mix =  0.700 |ddv_scf|^2 =  8.568E-11

      iter #   4 total cpu time :  3571.5 secs   av.it.:  17.8
      thresh= 9.257E-07 alpha_mix =  0.700 |ddv_scf|^2 =  1.383E-12

      iter #   5 total cpu time :  3576.1 secs   av.it.:  18.6
      thresh= 1.176E-07 alpha_mix =  0.700 |ddv_scf|^2 =  8.765E-15

     End of self-consistent calculation

     Convergence has been achieved 


     Representation #  6 modes #  13 14 15

     Self-consistent Calculation

      iter #   1 total cpu time :  3580.0 secs   av.it.:   8.0
      thresh= 1.000E-02 alpha_mix =  0.700 |ddv_scf|^2 =  2.726E-08

      iter #   2 total cpu time :  3585.5 secs   av.it.:  19.0
      thresh= 1.651E-05 alpha_mix =  0.700 |ddv_scf|^2 =  7.000E-11

      iter #   3 total cpu time :  3590.7 secs   av.it.:  18.7
      thresh= 8.366E-07 alpha_mix =  0.700 |ddv_scf|^2 =  4.019E-12

      iter #   4 total cpu time :  3595.7 secs   av.it.:  16.5
      thresh= 2.005E-07 alpha_mix =  0.700 |ddv_scf|^2 =  3.244E-15

     End of self-consistent calculation

     Convergence has been achieved 
 
     Number of q in the star =    1
     List of q in the star:
          1  -0.500000000  -0.500000000  -0.500000000

     Diagonalizing the dynamical matrix

     q = (   -0.500000000  -0.500000000  -0.500000000 ) 

 **************************************************************************
     freq (    1) =       3.426330 [THz] =     114.290052 [cm-1]
     freq (    2) =       3.426330 [THz] =     114.290052 [cm-1]
     freq (    3) =       3.426330 [THz] =     114.290052 [cm-1]
     freq (    4) =       4.910540 [THz] =     163.797986 [cm-1]
     freq (    5) =       4.910540 [THz] =     163.797986 [cm-1]
     freq (    6) =       4.910540 [THz] =     163.797986 [cm-1]
     freq (    7) =      10.828949 [THz] =     361.214871 [cm-1]
     freq (    8) =      10.828949 [THz] =     361.214871 [cm-1]
     freq (    9) =      10.828949 [THz] =     361.214871 [cm-1]
     freq (   10) =      11.307489 [THz] =     377.177231 [cm-1]
     freq (   11) =      11.307489 [THz] =     377.177231 [cm-1]
     freq (   12) =      12.520334 [THz] =     417.633387 [cm-1]
     freq (   13) =      12.520334 [THz] =     417.633387 [cm-1]
     freq (   14) =      12.520334 [THz] =     417.633387 [cm-1]
     freq (   15) =      22.495193 [THz] =     750.358867 [cm-1]
 **************************************************************************

     Mode symmetry, O_h (m-3m)  point group:

     freq (  1 -  3) =        114.3  [cm-1]   --> T_1u G_15  G_4-    
     freq (  4 -  6) =        163.8  [cm-1]   --> T_2u G_25  G_5-    
     freq (  7 -  9) =        361.2  [cm-1]   --> T_2g G_25' G_5+    
     freq ( 10 - 11) =        377.2  [cm-1]   --> E_u  G_12' G_3-    
     freq ( 12 - 14) =        417.6  [cm-1]   --> T_1u G_15  G_4-    
     freq ( 15 - 15) =        750.4  [cm-1]   --> A_2u G_2'  G_2-    
 
     init_run     :      2.03s CPU      2.15s WALL (       9 calls)
     electrons    :     75.96s CPU     77.83s WALL (       9 calls)

     Called by init_run:
     wfcinit      :      0.00s CPU      0.00s WALL (       9 calls)
     potinit      :      0.22s CPU      0.23s WALL (       9 calls)

     Called by electrons:
     c_bands      :     75.95s CPU     77.82s WALL (       9 calls)
     v_of_rho     :      0.08s CPU      0.09s WALL (      10 calls)
     newd         :      0.32s CPU      0.35s WALL (      10 calls)

     Called by c_bands:
     init_us_2    :      3.81s CPU      4.37s WALL (   36826 calls)
     cegterg      :     68.20s CPU     69.52s WALL (     772 calls)

     Called by sum_band:

     Called by *egterg:
     h_psi        :   2168.68s CPU   2234.60s WALL (  891540 calls)
     s_psi        :    134.51s CPU    128.85s WALL ( 1804090 calls)
     g_psi        :      0.30s CPU      0.31s WALL (   12970 calls)
     cdiaghg      :     20.71s CPU     20.82s WALL (   13678 calls)

     Called by h_psi:
     h_psi:pot    :   2164.91s CPU   2226.51s WALL (  891540 calls)
     h_psi:calbec :    132.10s CPU    132.99s WALL (  891540 calls)
     vloc_psi     :   1968.29s CPU   2026.36s WALL (  891540 calls)
     add_vuspsi   :     63.46s CPU     64.03s WALL (  891540 calls)

     General routines
     calbec       :    268.90s CPU    272.03s WALL ( 1879106 calls)
     fft          :     19.55s CPU     19.98s WALL (   19286 calls)
     ffts         :      2.64s CPU      2.77s WALL (    9388 calls)
     fftw         :   2144.88s CPU   2131.74s WALL (27130276 calls)
     interpolate  :      3.02s CPU      3.14s WALL (    2008 calls)
     davcio       :     11.55s CPU     49.50s WALL (  179320 calls)
 
     Parallel routines
     fft_scatter  :   1351.85s CPU   1308.08s WALL (27158950 calls)
 
     PHONON       : 57m16.51s CPU    59m56.02s WALL

     INITIALIZATION: 
     phq_setup    :      0.27s CPU      0.29s WALL (      10 calls)
     phq_init     :     30.51s CPU     32.44s WALL (      10 calls)
 
     phq_init     :     30.51s CPU     32.44s WALL (      10 calls)
     set_drhoc    :      1.15s CPU      1.15s WALL (      30 calls)
     init_vloc    :      0.13s CPU      0.13s WALL (      10 calls)
     init_us_1    :      0.66s CPU      0.75s WALL (      10 calls)
     newd         :      0.32s CPU      0.35s WALL (      10 calls)
     dvanqq       :      5.58s CPU      5.60s WALL (      10 calls)
     drho         :     20.89s CPU     22.71s WALL (      10 calls)
 
     DYNAMICAL MATRIX:
     dynmat0      :      2.37s CPU      2.42s WALL (      10 calls)
     phqscf       :   3295.43s CPU   3447.39s WALL (      10 calls)
     dynmatrix    :      0.30s CPU      0.33s WALL (      10 calls)
 
     phqscf       :   3295.43s CPU   3447.39s WALL (      10 calls)
     solve_linter :   3283.03s CPU   3433.12s WALL (     108 calls)
     drhodv       :     10.29s CPU     10.82s WALL (     108 calls)
 
     dynmat0      :      2.37s CPU      2.42s WALL (      10 calls)
     dynmat_us    :      1.39s CPU      1.42s WALL (      10 calls)
     d2ionq       :      0.07s CPU      0.07s WALL (      10 calls)
     dynmatcc     :      0.87s CPU      0.88s WALL (      10 calls)
 
     dynmat_us    :      1.39s CPU      1.42s WALL (      10 calls)
     addusdynmat  :      0.00s CPU      0.00s WALL (      10 calls)
 
     phqscf       :   3295.43s CPU   3447.39s WALL (      10 calls)
     solve_linter :   3283.03s CPU   3433.12s WALL (     108 calls)
 
     solve_linter :   3283.03s CPU   3433.12s WALL (     108 calls)
     dvqpsi_us    :     35.95s CPU     37.26s WALL (    5610 calls)
     ortho        :     20.75s CPU     21.35s WALL (   35430 calls)
     cgsolve      :   2582.38s CPU   2659.75s WALL (   35430 calls)
     incdrhoscf   :    213.79s CPU    221.62s WALL (   35430 calls)
     addusddens   :     43.56s CPU     43.82s WALL (     793 calls)
     vpsifft      :     91.49s CPU     98.61s WALL (   29790 calls)
     dv_of_drho   :      7.41s CPU      7.58s WALL (     921 calls)
     mix_pot      :     25.62s CPU     51.07s WALL (     690 calls)
     psymdvscf    :    181.29s CPU    185.49s WALL (     685 calls)
     newdq        :     47.21s CPU     47.40s WALL (     690 calls)
     adddvscf     :      8.94s CPU      8.97s WALL (   29910 calls)
     drhodvus     :      0.44s CPU      0.65s WALL (     108 calls)
 
     dvqpsi_us    :     35.95s CPU     37.26s WALL (    5610 calls)
     dvqpsi_us_on :     12.95s CPU     13.06s WALL (    5610 calls)
 
     cgsolve      :   2582.38s CPU   2659.75s WALL (   35430 calls)
     ch_psi       :   2492.98s CPU   2572.09s WALL (  877090 calls)
 
     ch_psi       :   2492.98s CPU   2572.09s WALL (  877090 calls)
     h_psi        :   2168.68s CPU   2234.60s WALL (  891540 calls)
     last         :    290.37s CPU    300.68s WALL (  877090 calls)
 
     h_psi        :   2168.68s CPU   2234.60s WALL (  891540 calls)
     add_vuspsi   :     63.46s CPU     64.03s WALL (  891540 calls)
 
     incdrhoscf   :    213.79s CPU    221.62s WALL (   35430 calls)
     addusdbec    :      9.21s CPU      9.42s WALL (   40890 calls)
 
     drhodvus     :      0.44s CPU      0.65s WALL (     108 calls)
 
      General routines
     calbec       :    268.90s CPU    272.03s WALL ( 1879106 calls)
     fft          :     19.55s CPU     19.98s WALL (   19286 calls)
     ffts         :      2.64s CPU      2.77s WALL (    9388 calls)
     fftw         :   2144.88s CPU   2131.74s WALL (27130276 calls)
     davcio       :     11.55s CPU     49.50s WALL (  179320 calls)
     write_rec    :      1.03s CPU     15.51s WALL (     798 calls)
 
 
     PHONON       : 57m16.51s CPU    59m56.02s WALL

 
   This run was terminated on:  19:23: 0  14Jan2018            

=------------------------------------------------------------------------------=
   JOB DONE.
=------------------------------------------------------------------------------=
