
     Program MATDYN v.6.1 (svn rev. 13369) starts on 13Jan2018 at 19:16:15 

     This program is part of the open-source Quantum ESPRESSO suite
     for quantum simulation of materials; please cite
         "P. Giannozzi et al., J. Phys.:Condens. Matter 21 395502 (2009);
          URL http://www.quantum-espresso.org", 
     in publications or presentations arising from this work. More details at
     http://www.quantum-espresso.org/quote

     Parallel version (MPI), running on     1 processors
 
     MATDYN       :     0.99s CPU         1.03s WALL

 
   This run was terminated on:  19:16:16  13Jan2018            

=------------------------------------------------------------------------------=
   JOB DONE.
=------------------------------------------------------------------------------=
