
     Program Q2R v.6.1 (svn rev. 13369) starts on 13Jan2018 at 19:16:14 

     This program is part of the open-source Quantum ESPRESSO suite
     for quantum simulation of materials; please cite
         "P. Giannozzi et al., J. Phys.:Condens. Matter 21 395502 (2009);
          URL http://www.quantum-espresso.org", 
     in publications or presentations arising from this work. More details at
     http://www.quantum-espresso.org/quote

     Parallel version (MPI), running on     1 processors

     reading grid info from file bto.dyn0    
  reading force constants from file bto.dyn1
 macroscopic fields = T
   6.51698   0.00000   0.00000
   0.00000   6.51698   0.00000
   0.00000   0.00000   6.51698
  na=            1
   2.52954   0.00000   0.00000
   0.00000   2.52954   0.00000
   0.00000   0.00000   2.52954
  na=            2
   7.32340   0.00000   0.00000
   0.00000   7.32340   0.00000
   0.00000   0.00000   7.32340
  na=            3
  -5.75594   0.00000   0.00000
   0.00000  -2.14551   0.00000
   0.00000   0.00000  -2.14551
  na=            4
  -2.14551   0.00000   0.00000
   0.00000  -5.75594   0.00000
   0.00000   0.00000  -2.14551
  na=            5
  -2.14551   0.00000   0.00000
   0.00000  -2.14551   0.00000
   0.00000   0.00000  -5.75594
  nqs=            1
 q=   0.00000000  0.00000000  0.00000000
  reading force constants from file bto.dyn2
  nqs=            6
 q=   0.00000000  0.00000000  0.25000000
 q=   0.00000000  0.25000000  0.00000000
 q=   0.00000000  0.00000000 -0.25000000
 q=   0.00000000 -0.25000000  0.00000000
 q=   0.25000000  0.00000000  0.00000000
 q=  -0.25000000  0.00000000  0.00000000
  reading force constants from file bto.dyn3
  nqs=            3
 q=   0.00000000  0.00000000 -0.50000000
 q=   0.00000000 -0.50000000  0.00000000
 q=  -0.50000000  0.00000000  0.00000000
  reading force constants from file bto.dyn4
  nqs=           12
 q=   0.00000000  0.25000000  0.25000000
 q=   0.25000000  0.00000000  0.25000000
 q=  -0.25000000  0.00000000  0.25000000
 q=   0.00000000 -0.25000000  0.25000000
 q=   0.25000000  0.00000000 -0.25000000
 q=   0.00000000 -0.25000000 -0.25000000
 q=   0.00000000  0.25000000 -0.25000000
 q=  -0.25000000  0.00000000 -0.25000000
 q=   0.25000000  0.25000000  0.00000000
 q=  -0.25000000  0.25000000  0.00000000
 q=   0.25000000 -0.25000000  0.00000000
 q=  -0.25000000 -0.25000000  0.00000000
  reading force constants from file bto.dyn5
  nqs=           12
 q=   0.00000000  0.25000000 -0.50000000
 q=   0.25000000  0.00000000 -0.50000000
 q=  -0.25000000  0.00000000 -0.50000000
 q=   0.00000000 -0.25000000 -0.50000000
 q=   0.00000000 -0.50000000  0.25000000
 q=   0.25000000 -0.50000000  0.00000000
 q=  -0.25000000 -0.50000000  0.00000000
 q=  -0.50000000  0.25000000  0.00000000
 q=  -0.50000000  0.00000000 -0.25000000
 q=   0.50000000  0.00000000  0.25000000
 q=  -0.50000000 -0.25000000  0.00000000
 q=   0.00000000 -0.50000000 -0.25000000
  reading force constants from file bto.dyn6
  nqs=            3
 q=   0.00000000 -0.50000000 -0.50000000
 q=  -0.50000000 -0.50000000  0.00000000
 q=  -0.50000000  0.00000000  0.50000000
  reading force constants from file bto.dyn7
  nqs=            8
 q=   0.25000000  0.25000000  0.25000000
 q=  -0.25000000 -0.25000000 -0.25000000
 q=  -0.25000000  0.25000000  0.25000000
 q=   0.25000000  0.25000000 -0.25000000
 q=   0.25000000 -0.25000000  0.25000000
 q=   0.25000000 -0.25000000 -0.25000000
 q=  -0.25000000 -0.25000000  0.25000000
 q=  -0.25000000  0.25000000 -0.25000000
  reading force constants from file bto.dyn8
  nqs=           12
 q=   0.25000000  0.25000000 -0.50000000
 q=  -0.50000000  0.25000000  0.25000000
 q=   0.25000000 -0.50000000  0.25000000
 q=  -0.25000000 -0.25000000  0.50000000
 q=  -0.25000000  0.25000000 -0.50000000
 q=  -0.25000000 -0.50000000  0.25000000
 q=   0.25000000 -0.50000000 -0.25000000
 q=   0.25000000 -0.25000000 -0.50000000
 q=  -0.25000000  0.50000000 -0.25000000
 q=  -0.50000000 -0.25000000 -0.25000000
 q=   0.50000000 -0.25000000  0.25000000
 q=   0.50000000  0.25000000 -0.25000000
  reading force constants from file bto.dyn9
  nqs=            6
 q=   0.25000000 -0.50000000 -0.50000000
 q=  -0.25000000 -0.50000000 -0.50000000
 q=  -0.50000000  0.25000000  0.50000000
 q=   0.50000000 -0.50000000 -0.25000000
 q=   0.50000000  0.50000000  0.25000000
 q=  -0.50000000 -0.25000000  0.50000000
  reading force constants from file bto.dyn10
  nqs=            1
 q=  -0.50000000 -0.50000000 -0.50000000

      q-space grid ok, #points =   64

      fft-check success (sum of imaginary terms < 10^-12)
 
     Q2R          :     0.04s CPU         0.32s WALL

 
   This run was terminated on:  19:16:14  13Jan2018            

=------------------------------------------------------------------------------=
   JOB DONE.
=------------------------------------------------------------------------------=
